
     Program PWSCF v.7.2 starts on 13Mar2024 at 17:22:25 

     This program is part of the open-source Quantum ESPRESSO suite
     for quantum simulation of materials; please cite
         "P. Giannozzi et al., J. Phys.:Condens. Matter 21 395502 (2009);
         "P. Giannozzi et al., J. Phys.:Condens. Matter 29 465901 (2017);
         "P. Giannozzi et al., J. Chem. Phys. 152 154105 (2020);
          URL http://www.quantum-espresso.org", 
     in publications or presentations arising from this work. More details at
     http://www.quantum-espresso.org/quote

     Parallel version (MPI & OpenMP), running on       4 processor cores
     Number of MPI processes:                 4
     Threads/MPI process:                     1

     MPI processes distributed on     1 nodes
     178002 MiB available memory on the printing compute node when the environment starts

     Reading input from iron.nscf
     Message from routine read_cards :
     DEPRECATED: no units specified in ATOMIC_POSITIONS card
     Message from routine read_cards :
     ATOMIC_POSITIONS: units set to alat

     Current dimensions of program PWSCF are:
     Max number of different atomic species (ntypx) = 10
     Max number of k-points (npk) =  40000
     Max angular momentum in pseudopotentials (lmaxx) =  4

     Atomic positions and unit cell read from directory:
     ./Fe.save/

     WARNING: atomic wfc #  5 for atom typeFe has zero norm

     R & G space division:  proc/nbgrp/npool/nimage =       4
     Subspace diagonalization in iterative solution of the eigenvalue problem:
     a serial algorithm will be used


     Parallelization info
     --------------------
     sticks:   dense  smooth     PW     G-vecs:    dense   smooth      PW
     Min         333     199     75                 7667     3542     829
     Max         335     200     76                 7668     3544     830
     Sum        1335     797    303                30669    14171    3319

     Using Slab Decomposition



     bravais-lattice index     =            3
     lattice parameter (alat)  =       5.4235  a.u.
     unit-cell volume          =      79.7644 (a.u.)^3
     number of atoms/cell      =            1
     number of atomic types    =            1
     number of electrons       =         8.00
     number of Kohn-Sham states=           14
     kinetic-energy cutoff     =     120.0000  Ry
     charge density cutoff     =     800.0000  Ry
     Exchange-correlation=  SLA  PW   PBX  PBC
                           (   1   4   3   4   0   0   0)

     celldm(1)=   5.423500  celldm(2)=   0.000000  celldm(3)=   0.000000
     celldm(4)=   0.000000  celldm(5)=   0.000000  celldm(6)=   0.000000

     crystal axes: (cart. coord. in units of alat)
               a(1) = (   0.500000   0.500000   0.500000 )  
               a(2) = (  -0.500000   0.500000   0.500000 )  
               a(3) = (  -0.500000  -0.500000   0.500000 )  

     reciprocal axes: (cart. coord. in units 2 pi/alat)
               b(1) = (  1.000000  0.000000  1.000000 )  
               b(2) = ( -1.000000  1.000000  0.000000 )  
               b(3) = (  0.000000 -1.000000  1.000000 )  


     PseudoPot. # 1 for Fe read from file:
     pseudo/Fe.jry.pbe.UPF
     MD5 check sum: a8bb50c89a6176606a0e5b7b8e4b870c
     Pseudo is Norm-conserving + core correction, Zval =  8.0
     Generated by new atomic code, or converted to UPF format
     Using radial grid of 1165 points,  2 beta functions with: 
                l(1) =   2
                l(2) =   1

     atomic species   valence    mass     pseudopotential
        Fe             8.00    55.85000     Fe( 1.00)

     Starting magnetic structure 
     atomic species   magnetization
        Fe          -1.000

     No symmetry found



   Cartesian axes

     site n.     atom                  positions (alat units)
         1           Fe  tau(   1) = (   0.0000000   0.0000000   0.0000000  )

     number of k points=   512  Marzari-Vanderbilt smearing, width (Ry)=  0.0200

     Number of k-points >= 100: set verbosity='high' to print them.

     Dense  grid:    30669 G-vectors     FFT dimensions: (  45,  45,  45)

     Smooth grid:    14171 G-vectors     FFT dimensions: (  36,  36,  36)

     Estimated max dynamical RAM per process >       4.63 MB

     Estimated total dynamical RAM >      18.52 MB
     Generating pointlists ...
     new r_m :   0.3572 (alat units)  1.9375 (a.u.) for type    1

     The potential is recalculated from file :
     ./Fe.save/charge-density

     Starting wfcs are    9 randomized atomic wfcs +    5 random wfcs

     Band Structure Calculation
     Davidson diagonalization with overlap

     ethr =  1.25E-10,  avg # of iterations = 26.4

     total cpu time spent up to now is       86.1 secs

     End of band structure calculation

     Number of k-points >= 100: set verbosity='high' to print the bands.

     the Fermi energy is    12.6409 ev
     (compare with:    12.6256 eV, computed in scf)

     Writing all to output data dir ./Fe.save/

     init_run     :      0.18s CPU      0.21s WALL (       1 calls)
     electrons    :     83.79s CPU     85.65s WALL (       1 calls)

     Called by init_run:
     wfcinit      :      0.00s CPU      0.00s WALL (       1 calls)
     potinit      :      0.04s CPU      0.05s WALL (       1 calls)
     hinit0       :      0.07s CPU      0.08s WALL (       1 calls)

     Called by electrons:
     c_bands      :     83.77s CPU     85.63s WALL (       1 calls)
     v_of_rho     :      0.04s CPU      0.05s WALL (       1 calls)

     Called by c_bands:
     init_us_2    :      0.17s CPU      0.17s WALL (    1024 calls)
     init_us_2:cp :      0.17s CPU      0.17s WALL (    1024 calls)
     cegterg      :     75.22s CPU     76.64s WALL (    1831 calls)

     Called by *egterg:
     cdiaghg      :      8.60s CPU      8.78s WALL (   28070 calls)
     h_psi        :     61.38s CPU     62.56s WALL (   29901 calls)
     g_psi        :      1.32s CPU      1.35s WALL (   27046 calls)

     Called by h_psi:
     h_psi:calbec :      1.19s CPU      1.22s WALL (   29901 calls)
     vloc_psi     :     59.04s CPU     60.17s WALL (   29901 calls)
     add_vuspsi   :      0.60s CPU      0.61s WALL (   29901 calls)

     General routines
     calbec       :      1.14s CPU      1.17s WALL (   29901 calls)
     fft          :      0.02s CPU      0.03s WALL (      21 calls)
     ffts         :      0.00s CPU      0.00s WALL (       2 calls)
     fftw         :     38.67s CPU     39.40s WALL (  458892 calls)
     interpolate  :      0.00s CPU      0.00s WALL (       2 calls)
     davcio       :      0.09s CPU      0.52s WALL (    2048 calls)

     Parallel routines

     PWSCF        :   1m24.91s CPU   1m31.72s WALL


   This run was terminated on:  17:23:56  13Mar2024            

=------------------------------------------------------------------------------=
   JOB DONE.
=------------------------------------------------------------------------------=
