 written on 13Mar2024 at 17:29:07 
           9
         597
    4    3    4    3    2    1    2    3    1    1    1    2    2    1    1
    1    3    2    1    2    3    4    2    1    2    2    1    1    1    2
    2    1    1    1    1    1    2    4    1    1    1    1    1    1    1
    4    2    1    1    1    1    1    2    2    1    1    1    2    2    1
    2    4    3    3    1    1    1    2    2    1    1    1    1    1    2
    3    1    1    1    1    1    1    1    3    1    1    1    1    1    1
    1    1    1    1    1    1    1    1    1    1    3    1    1    1    1
    1    1    1    3    2    1    1    1    1    1    2    2    1    1    1
    3    3    4    2    1    1    1    3    4    1    1    1    1    1    1
    1    4    1    1    1    1    1    1    1    1    1    1    1    1    1
    1    1    1    2    1    1    1    1    1    1    1    2    1    1    1
    1    1    1    1    1    1    1    1    1    1    1    1    1    4    1
    1    1    1    1    1    1    4    3    1    1    1    2    4    2    1
    2    2    1    1    1    1    1    2    1    1    1    1    1    1    1
    1    2    1    1    1    1    1    1    1    2    1    1    1    1    1
    1    1    1    1    1    1    1    1    1    1    1    2    1    1    1
    1    1    1    1    2    1    1    1    1    1    1    1    1    2    1
    1    1    1    1    2    2    1    2    3    2    1    1    1    2    3
    1    1    1    1    1    1    1    3    1    1    1    1    1    1    1
    1    1    1    1    1    1    1    1    1    2    1    1    1    1    1
    1    1    2    1    1    1    1    1    1    1    1    1    1    1    1
    1    1    1    1    3    1    1    1    1    1    1    1    3    2    1
    1    1    2    3    2    1    2    2    1    1    1    1    1    2    1
    1    1    1    1    1    1    1    2    1    1    1    1    1    1    1
    2    1    1    1    1    1    1    1    1    1    1    1    1    1    1
    1    1    2    1    1    1    1    1    1    1    2    1    1    1    1
    1    1    1    1    2    1    1    1    1    1    2    2    1    2    4
    2    1    1    1    3    4    1    1    1    1    1    1    1    4    1
    1    1    1    1    1    1    1    1    1    1    1    1    1    1    1
    2    1    1    1    1    1    1    1    2    1    1    1    1    1    1
    1    1    1    1    1    1    1    1    1    1    4    1    1    1    1
    1    1    1    4    3    1    1    1    2    4    3    3    1    1    1
    2    2    1    1    1    1    1    2    3    1    1    1    1    1    1
    1    3    1    1    1    1    1    1    1    1    1    1    1    1    1
    1    1    1    3    1    1    1    1    1    1    1    3    2    1    1
    1    1    1    2    2    1    1    1    3    3    4    2    1    2    2
    1    1    1    2    2    1    1    1    1    1    2    4    1    1    1
    1    1    1    1    4    2    1    1    1    1    1    2    2    1    1
    1    2    2    1    2    4    3    2    1    2    3    1    1    1    2
    2    1    1    1    3    2    1    2    3    4    3    4
   -6    2   -4    1    1    0.006024    0.000000
   -6    2   -4    2    1   -0.000061   -0.000000
   -6    2   -4    3    1   -0.007119    0.000000
   -6    2   -4    4    1    0.000828    0.000000
   -6    2   -4    5    1   -0.000060   -0.000000
   -6    2   -4    6    1   -0.000000    0.000000
   -6    2   -4    7    1   -0.000000   -0.000000
   -6    2   -4    8    1    0.000828    0.000000
   -6    2   -4    9    1   -0.000000   -0.000000
   -6    2   -4    1    2   -0.000828    0.000000
   -6    2   -4    2    2    0.007662   -0.000000
   -6    2   -4    3    2   -0.000060    0.000000
   -6    2   -4    4    2    0.000378    0.000000
   -6    2   -4    5    2   -0.008394    0.000000
   -6    2   -4    6    2    0.001169    0.000000
   -6    2   -4    7    2   -0.000002   -0.000000
   -6    2   -4    8    2    0.000379    0.000000
   -6    2   -4    9    2    0.000003    0.000000
   -6    2   -4    1    3   -0.007120    0.000000
   -6    2   -4    2    3   -0.000828   -0.000000
   -6    2   -4    3    3    0.006024   -0.000000
   -6    2   -4    4    3    0.000060    0.000000
   -6    2   -4    5    3   -0.000828   -0.000000
   -6    2   -4    6    3    0.000000    0.000000
   -6    2   -4    7    3    0.000000    0.000000
   -6    2   -4    8    3    0.000061    0.000000
   -6    2   -4    9    3    0.000000   -0.000000
   -6    2   -4    1    4    0.000061   -0.000000
   -6    2   -4    2    4    0.000378   -0.000000
   -6    2   -4    3    4    0.000828   -0.000000
   -6    2   -4    4    4    0.007662   -0.000000
   -6    2   -4    5    4    0.000379   -0.000000
   -6    2   -4    6    4    0.000003    0.000000
   -6    2   -4    7    4   -0.000003   -0.000000
   -6    2   -4    8    4   -0.008393   -0.000000
   -6    2   -4    9    4   -0.001170   -0.000000
   -6    2   -4    1    5   -0.000828    0.000000
   -6    2   -4    2    5   -0.008393    0.000000
   -6    2   -4    3    5   -0.000061    0.000000
   -6    2   -4    4    5    0.000378    0.000000
   -6    2   -4    5    5    0.007662    0.000000
   -6    2   -4    6    5   -0.001170   -0.000000
   -6    2   -4    7    5    0.000002    0.000000
   -6    2   -4    8    5    0.000378   -0.000000
   -6    2   -4    9    5   -0.000002   -0.000000
   -6    2   -4    1    6    0.000000    0.000000
   -6    2   -4    2    6   -0.001170   -0.000000
   -6    2   -4    3    6   -0.000000   -0.000000
   -6    2   -4    4    6   -0.000002   -0.000000
   -6    2   -4    5    6    0.001169    0.000000
   -6    2   -4    6    6    0.000083    0.000000
   -6    2   -4    7    6    0.000000   -0.000000
   -6    2   -4    8    6    0.000003   -0.000000
   -6    2   -4    9    6   -0.000000    0.000000
   -6    2   -4    1    7    0.000000    0.000000
   -6    2   -4    2    7    0.000002    0.000000
   -6    2   -4    3    7   -0.000000   -0.000000
   -6    2   -4    4    7    0.000003    0.000000
   -6    2   -4    5    7   -0.000002   -0.000000
   -6    2   -4    6    7    0.000000   -0.000000
   -6    2   -4    7    7    0.000277    0.000000
   -6    2   -4    8    7   -0.000003   -0.000000
   -6    2   -4    9    7   -0.000000   -0.000000
   -6    2   -4    1    8    0.000060   -0.000000
   -6    2   -4    2    8    0.000378   -0.000000
   -6    2   -4    3    8    0.000828   -0.000000
   -6    2   -4    4    8   -0.008394    0.000000
   -6    2   -4    5    8    0.000379    0.000000
   -6    2   -4    6    8   -0.000002   -0.000000
   -6    2   -4    7    8    0.000003    0.000000
   -6    2   -4    8    8    0.007662   -0.000000
   -6    2   -4    9    8    0.001169    0.000000
   -6    2   -4    1    9    0.000000   -0.000000
   -6    2   -4    2    9   -0.000002   -0.000000
   -6    2   -4    3    9   -0.000000   -0.000000
   -6    2   -4    4    9    0.001169   -0.000000
   -6    2   -4    5    9    0.000003    0.000000
   -6    2   -4    6    9   -0.000000    0.000000
   -6    2   -4    7    9   -0.000000    0.000000
   -6    2   -4    8    9   -0.001170    0.000000
   -6    2   -4    9    9    0.000083    0.000000
   -6    3   -3    1    1    0.005546    0.000000
   -6    3   -3    2    1    0.001111   -0.000000
   -6    3   -3    3    1   -0.007447    0.000000
   -6    3   -3    4    1    0.001294    0.000000
   -6    3   -3    5    1   -0.003220    0.000000
   -6    3   -3    6    1    0.000516    0.000000
   -6    3   -3    7    1   -0.000001   -0.000000
   -6    3   -3    8    1    0.001299    0.000000
   -6    3   -3    9    1    0.000001   -0.000000
   -6    3   -3    1    2    0.003785    0.000000
   -6    3   -3    2    2    0.005549   -0.000000
   -6    3   -3    3    2   -0.003221   -0.000000
   -6    3   -3    4    2   -0.000475   -0.000000
   -6    3   -3    5    2   -0.005117   -0.000000
   -6    3   -3    6    2   -0.000622   -0.000000
   -6    3   -3    7    2    0.000001    0.000000
   -6    3   -3    8    2   -0.000472   -0.000000
   -6    3   -3    9    2   -0.000001   -0.000000
   -6    3   -3    1    3   -0.005114   -0.000000
   -6    3   -3    2    3   -0.003219    0.000000
   -6    3   -3    3    3    0.005546    0.000000
   -6    3   -3    4    3   -0.000471   -0.000000
   -6    3   -3    5    3    0.003785    0.000000
   -6    3   -3    6    3   -0.000621   -0.000000
   -6    3   -3    7    3    0.000001   -0.000000
   -6    3   -3    8    3   -0.000477   -0.000000
   -6    3   -3    9    3   -0.000002   -0.000000
   -6    3   -3    1    4   -0.000477    0.000000
   -6    3   -3    2    4    0.001295    0.000000
   -6    3   -3    3    4    0.001300    0.000000
   -6    3   -3    4    4   -0.010654   -0.000000
   -6    3   -3    5    4   -0.000472    0.000000
   -6    3   -3    6    4    0.000229   -0.000000
   -6    3   -3    7    4    0.000246   -0.000000
   -6    3   -3    8    4    0.009566   -0.000000
   -6    3   -3    9    4    0.000245   -0.000000
   -6    3   -3    1    5   -0.003219    0.000000
   -6    3   -3    2    5   -0.007450    0.000000
   -6    3   -3    3    5    0.001111    0.000000
   -6    3   -3    4    5    0.001298    0.000000
   -6    3   -3    5    5    0.005549    0.000000
   -6    3   -3    6    5    0.000516    0.000000
   -6    3   -3    7    5   -0.000001    0.000000
   -6    3   -3    8    5    0.001295    0.000000
   -6    3   -3    9    5    0.000001    0.000000
   -6    3   -3    1    6   -0.000622   -0.000000
   -6    3   -3    2    6    0.000516   -0.000000
   -6    3   -3    3    6    0.000516   -0.000000
   -6    3   -3    4    6    0.000229   -0.000000
   -6    3   -3    5    6   -0.000622   -0.000000
   -6    3   -3    6    6   -0.000028   -0.000000
   -6    3   -3    7    6    0.000000   -0.000000
   -6    3   -3    8    6    0.000229    0.000000
   -6    3   -3    9    6    0.000000   -0.000000
   -6    3   -3    1    7    0.000001    0.000000
   -6    3   -3    2    7   -0.000001    0.000000
   -6    3   -3    3    7   -0.000001   -0.000000
   -6    3   -3    4    7   -0.000246   -0.000000
   -6    3   -3    5    7    0.000001    0.000000
   -6    3   -3    6    7    0.000000   -0.000000
   -6    3   -3    7    7   -0.000124    0.000000
   -6    3   -3    8    7    0.000246    0.000000
   -6    3   -3    9    7   -0.000077   -0.000000
   -6    3   -3    1    8   -0.000471    0.000000
   -6    3   -3    2    8    0.001298    0.000000
   -6    3   -3    3    8    0.001294   -0.000000
   -6    3   -3    4    8    0.009566   -0.000000
   -6    3   -3    5    8   -0.000475   -0.000000
   -6    3   -3    6    8    0.000230    0.000000
   -6    3   -3    7    8   -0.000246    0.000000
   -6    3   -3    8    8   -0.010654   -0.000000
   -6    3   -3    9    8   -0.000244   -0.000000
   -6    3   -3    1    9   -0.000002   -0.000000
   -6    3   -3    2    9    0.000001    0.000000
   -6    3   -3    3    9    0.000001    0.000000
   -6    3   -3    4    9   -0.000244   -0.000000
   -6    3   -3    5    9   -0.000001    0.000000
   -6    3   -3    6    9    0.000000   -0.000000
   -6    3   -3    7    9   -0.000077   -0.000000
   -6    3   -3    8    9    0.000245    0.000000
   -6    3   -3    9    9   -0.000124    0.000000
   -6    4   -2    1    1    0.007662    0.000000
   -6    4   -2    2    1   -0.000060    0.000000
   -6    4   -2    3    1   -0.008394    0.000000
   -6    4   -2    4    1    0.000379   -0.000000
   -6    4   -2    5    1   -0.000829    0.000000
   -6    4   -2    6    1   -0.001169   -0.000000
   -6    4   -2    7    1    0.000002   -0.000000
   -6    4   -2    8    1    0.000378   -0.000000
   -6    4   -2    9    1   -0.000003    0.000000
   -6    4   -2    1    2   -0.000828   -0.000000
   -6    4   -2    2    2    0.006024   -0.000000
   -6    4   -2    3    2   -0.000828   -0.000000
   -6    4   -2    4    2    0.000061    0.000000
   -6    4   -2    5    2   -0.007119   -0.000000
   -6    4   -2    6    2   -0.000000    0.000000
   -6    4   -2    7    2   -0.000000   -0.000000
   -6    4   -2    8    2    0.000060    0.000000
   -6    4   -2    9    2   -0.000000    0.000000
   -6    4   -2    1    3   -0.008393    0.000000
   -6    4   -2    2    3   -0.000061    0.000000
   -6    4   -2    3    3    0.007662    0.000000
   -6    4   -2    4    3    0.000379    0.000000
   -6    4   -2    5    3   -0.000828    0.000000
   -6    4   -2    6    3    0.001170    0.000000
   -6    4   -2    7    3   -0.000002    0.000000
   -6    4   -2    8    3    0.000378    0.000000
   -6    4   -2    9    3    0.000002   -0.000000
   -6    4   -2    1    4    0.000378    0.000000
   -6    4   -2    2    4    0.000828   -0.000000
   -6    4   -2    3    4    0.000378   -0.000000
   -6    4   -2    4    4    0.007662   -0.000000
   -6    4   -2    5    4    0.000060   -0.000000
   -6    4   -2    6    4   -0.000002   -0.000000
   -6    4   -2    7    4   -0.001170    0.000000
   -6    4   -2    8    4   -0.008394   -0.000000
   -6    4   -2    9    4    0.000003   -0.000000
   -6    4   -2    1    5   -0.000062   -0.000000
   -6    4   -2    2    5   -0.007120    0.000000
   -6    4   -2    3    5   -0.000060   -0.000000
   -6    4   -2    4    5    0.000828    0.000000
   -6    4   -2    5    5    0.006024    0.000000
   -6    4   -2    6    5    0.000000   -0.000000
   -6    4   -2    7    5    0.000000    0.000000
   -6    4   -2    8    5    0.000828    0.000000
   -6    4   -2    9    5    0.000000   -0.000000
   -6    4   -2    1    6    0.001170   -0.000000
   -6    4   -2    2    6    0.000000   -0.000000
   -6    4   -2    3    6   -0.001169    0.000000
   -6    4   -2    4    6    0.000002   -0.000000
   -6    4   -2    5    6   -0.000000    0.000000
   -6    4   -2    6    6    0.000083   -0.000000
   -6    4   -2    7    6   -0.000000    0.000000
   -6    4   -2    8    6   -0.000002   -0.000000
   -6    4   -2    9    6   -0.000000   -0.000000
   -6    4   -2    1    7   -0.000002    0.000000
   -6    4   -2    2    7    0.000000    0.000000
   -6    4   -2    3    7    0.000002   -0.000000
   -6    4   -2    4    7    0.001170   -0.000000
   -6    4   -2    5    7   -0.000000   -0.000000
   -6    4   -2    6    7   -0.000000   -0.000000
   -6    4   -2    7    7    0.000083    0.000000
   -6    4   -2    8    7   -0.001170    0.000000
   -6    4   -2    9    7    0.000000    0.000000
   -6    4   -2    1    8    0.000379    0.000000
   -6    4   -2    2    8    0.000828   -0.000000
   -6    4   -2    3    8    0.000379   -0.000000
   -6    4   -2    4    8   -0.008393    0.000000
   -6    4   -2    5    8    0.000061   -0.000000
   -6    4   -2    6    8    0.000002   -0.000000
   -6    4   -2    7    8    0.001170    0.000000
   -6    4   -2    8    8    0.007662   -0.000000
   -6    4   -2    9    8   -0.000003    0.000000
   -6    4   -2    1    9    0.000002   -0.000000
   -6    4   -2    2    9    0.000000    0.000000
   -6    4   -2    3    9   -0.000003    0.000000
   -6    4   -2    4    9   -0.000003   -0.000000
   -6    4   -2    5    9   -0.000000   -0.000000
   -6    4   -2    6    9   -0.000000   -0.000000
   -6    4   -2    7    9    0.000000   -0.000000
   -6    4   -2    8    9    0.000003   -0.000000
   -6    4   -2    9    9    0.000277   -0.000000
   -5    0   -3    1    1    0.005549    0.000000
   -5    0   -3    2    1    0.000478    0.000000
   -5    0   -3    3    1   -0.005117    0.000000
   -5    0   -3    4    1    0.003220    0.000000
   -5    0   -3    5    1    0.000469    0.000000
   -5    0   -3    6    1    0.000002   -0.000000
   -5    0   -3    7    1   -0.000001    0.000000
   -5    0   -3    8    1   -0.003785   -0.000000
   -5    0   -3    9    1   -0.000622   -0.000000
   -5    0   -3    1    2   -0.001292   -0.000000
   -5    0   -3    2    2   -0.010654   -0.000000
   -5    0   -3    3    2    0.000469    0.000000
   -5    0   -3    4    2    0.001298    0.000000
   -5    0   -3    5    2    0.009566   -0.000000
   -5    0   -3    6    2   -0.000245   -0.000000
   -5    0   -3    7    2   -0.000246   -0.000000
   -5    0   -3    8    2   -0.000476    0.000000
   -5    0   -3    9    2   -0.000229    0.000000
   -5    0   -3    1    3   -0.007450   -0.000000
   -5    0   -3    2    3   -0.001301   -0.000000
   -5    0   -3    3    3    0.005549    0.000000
   -5    0   -3    4    3   -0.001111   -0.000000
   -5    0   -3    5    3   -0.001292   -0.000000
   -5    0   -3    6    3   -0.000001   -0.000000
   -5    0   -3    7    3    0.000001   -0.000000
   -5    0   -3    8    3    0.003220   -0.000000
   -5    0   -3    9    3    0.000516    0.000000
   -5    0   -3    1    4    0.003219   -0.000000
   -5    0   -3    2    4   -0.000472    0.000000
   -5    0   -3    3    4   -0.003785    0.000000
   -5    0   -3    4    4    0.005547   -0.000000
   -5    0   -3    5    4   -0.000476   -0.000000
   -5    0   -3    6    4   -0.000001   -0.000000
   -5    0   -3    7    4    0.000001   -0.000000
   -5    0   -3    8    4   -0.005115    0.000000
   -5    0   -3    9    4    0.000622   -0.000000
   -5    0   -3    1    5   -0.001301    0.000000
   -5    0   -3    2    5    0.009565   -0.000000
   -5    0   -3    3    5    0.000478    0.000000
   -5    0   -3    4    5    0.001295   -0.000000
   -5    0   -3    5    5   -0.010654   -0.000000
   -5    0   -3    6    5    0.000246    0.000000
   -5    0   -3    7    5    0.000245   -0.000000
   -5    0   -3    8    5   -0.000472    0.000000
   -5    0   -3    9    5   -0.000229   -0.000000
   -5    0   -3    1    6   -0.000001    0.000000
   -5    0   -3    2    6    0.000246   -0.000000
   -5    0   -3    3    6    0.000002    0.000000
   -5    0   -3    4    6    0.000001   -0.000000
   -5    0   -3    5    6   -0.000245    0.000000
   -5    0   -3    6    6   -0.000124   -0.000000
   -5    0   -3    7    6   -0.000077    0.000000
   -5    0   -3    8    6   -0.000001    0.000000
   -5    0   -3    9    6   -0.000000   -0.000000
   -5    0   -3    1    7    0.000001    0.000000
   -5    0   -3    2    7    0.000244    0.000000
   -5    0   -3    3    7   -0.000001   -0.000000
   -5    0   -3    4    7   -0.000001   -0.000000
   -5    0   -3    5    7   -0.000246    0.000000
   -5    0   -3    6    7   -0.000077    0.000000
   -5    0   -3    7    7   -0.000124   -0.000000
   -5    0   -3    8    7    0.000002   -0.000000
   -5    0   -3    9    7    0.000000   -0.000000
   -5    0   -3    1    8   -0.001111   -0.000000
   -5    0   -3    2    8    0.001295    0.000000
   -5    0   -3    3    8    0.003220   -0.000000
   -5    0   -3    4    8   -0.007448   -0.000000
   -5    0   -3    5    8    0.001298    0.000000
   -5    0   -3    6    8    0.000001    0.000000
   -5    0   -3    7    8   -0.000001    0.000000
   -5    0   -3    8    8    0.005547    0.000000
   -5    0   -3    9    8   -0.000516    0.000000
   -5    0   -3    1    9    0.000516   -0.000000
   -5    0   -3    2    9   -0.000229    0.000000
   -5    0   -3    3    9   -0.000622    0.000000
   -5    0   -3    4    9   -0.000516   -0.000000
   -5    0   -3    5    9   -0.000229   -0.000000
   -5    0   -3    6    9   -0.000000    0.000000
   -5    0   -3    7    9    0.000000    0.000000
   -5    0   -3    8    9    0.000622    0.000000
   -5    0   -3    9    9   -0.000028    0.000000
   -5    1   -4    1    1   -0.003534   -0.000000
   -5    1   -4    2    1   -0.002167    0.000000
   -5    1   -4    3    1   -0.000035    0.000000
   -5    1   -4    4    1    0.001656    0.000000
   -5    1   -4    5    1   -0.002165   -0.000000
   -5    1   -4    6    1   -0.000001    0.000000
   -5    1   -4    7    1    0.000000   -0.000000
   -5    1   -4    8    1    0.001655    0.000000
   -5    1   -4    9    1    0.000000   -0.000000
   -5    1   -4    1    2    0.001201   -0.000000
   -5    1   -4    2    2    0.001280    0.000000
   -5    1   -4    3    2   -0.002166    0.000000
   -5    1   -4    4    2    0.000457    0.000000
   -5    1   -4    5    2   -0.002465   -0.000000
   -5    1   -4    6    2   -0.000074    0.000000
   -5    1   -4    7    2    0.000000   -0.000000
   -5    1   -4    8    2    0.000458    0.000000
   -5    1   -4    9    2   -0.000000    0.000000
   -5    1   -4    1    3    0.004880   -0.000000
   -5    1   -4    2    3    0.001204    0.000000
   -5    1   -4    3    3   -0.003534    0.000000
   -5    1   -4    4    3   -0.000640    0.000000
   -5    1   -4    5    3    0.001201   -0.000000
   -5    1   -4    6    3    0.000001   -0.000000
   -5    1   -4    7    3   -0.000000    0.000000
   -5    1   -4    8    3   -0.000638    0.000000
   -5    1   -4    9    3    0.000000   -0.000000
   -5    1   -4    1    4   -0.000638   -0.000000
   -5    1   -4    2    4    0.000457   -0.000000
   -5    1   -4    3    4    0.001655   -0.000000
   -5    1   -4    4    4    0.001113    0.000000
   -5    1   -4    5    4    0.000458   -0.000000
   -5    1   -4    6    4   -0.000001   -0.000000
   -5    1   -4    7    4    0.000001   -0.000000
   -5    1   -4    8    4   -0.002022   -0.000000
   -5    1   -4    9    4    0.000602    0.000000
   -5    1   -4    1    5    0.001204    0.000000
   -5    1   -4    2    5   -0.002463   -0.000000
   -5    1   -4    3    5   -0.002168    0.000000
   -5    1   -4    4    5    0.000457    0.000000
   -5    1   -4    5    5    0.001280   -0.000000
   -5    1   -4    6    5    0.000074   -0.000000
   -5    1   -4    7    5   -0.000000    0.000000
   -5    1   -4    8    5    0.000457    0.000000
   -5    1   -4    9    5    0.000000   -0.000000
   -5    1   -4    1    6    0.000001   -0.000000
   -5    1   -4    2    6    0.000074    0.000000
   -5    1   -4    3    6   -0.000001    0.000000
   -5    1   -4    4    6    0.000001   -0.000000
   -5    1   -4    5    6   -0.000074    0.000000
   -5    1   -4    6    6   -0.000109   -0.000000
   -5    1   -4    7    6    0.000001    0.000000
   -5    1   -4    8    6   -0.000001    0.000000
   -5    1   -4    9    6   -0.000000    0.000000
   -5    1   -4    1    7   -0.000000    0.000000
   -5    1   -4    2    7   -0.000000    0.000000
   -5    1   -4    3    7    0.000000   -0.000000
   -5    1   -4    4    7   -0.000001   -0.000000
   -5    1   -4    5    7    0.000000   -0.000000
   -5    1   -4    6    7    0.000001    0.000000
   -5    1   -4    7    7    0.000242   -0.000000
   -5    1   -4    8    7    0.000001   -0.000000
   -5    1   -4    9    7   -0.000001    0.000000
   -5    1   -4    1    8   -0.000640   -0.000000
   -5    1   -4    2    8    0.000457   -0.000000
   -5    1   -4    3    8    0.001656   -0.000000
   -5    1   -4    4    8   -0.002020    0.000000
   -5    1   -4    5    8    0.000457   -0.000000
   -5    1   -4    6    8    0.000001   -0.000000
   -5    1   -4    7    8   -0.000001    0.000000
   -5    1   -4    8    8    0.001113    0.000000
   -5    1   -4    9    8   -0.000602   -0.000000
   -5    1   -4    1    9    0.000000    0.000000
   -5    1   -4    2    9    0.000000   -0.000000
   -5    1   -4    3    9    0.000000   -0.000000
   -5    1   -4    4    9   -0.000602    0.000000
   -5    1   -4    5    9   -0.000000    0.000000
   -5    1   -4    6    9   -0.000000   -0.000000
   -5    1   -4    7    9   -0.000001   -0.000000
   -5    1   -4    8    9    0.000602    0.000000
   -5    1   -4    9    9   -0.000023   -0.000000
   -5    1   -3    1    1    0.001487    0.000000
   -5    1   -3    2    1    0.000766    0.000000
   -5    1   -3    3    1   -0.002170    0.000000
   -5    1   -3    4    1    0.002028   -0.000000
   -5    1   -3    5    1   -0.001129   -0.000000
   -5    1   -3    6    1   -0.000570    0.000000
   -5    1   -3    7    1    0.000062   -0.000000
   -5    1   -3    8    1   -0.001449    0.000000
   -5    1   -3    9    1   -0.000346   -0.000000
   -5    1   -3    1    2    0.001840    0.000000
   -5    1   -3    2    2   -0.003626    0.000000
   -5    1   -3    3    2   -0.001129    0.000000
   -5    1   -3    4    2   -0.002496   -0.000000
   -5    1   -3    5    2    0.005602    0.000000
   -5    1   -3    6    2    0.000594   -0.000000
   -5    1   -3    7    2   -0.000653   -0.000000
   -5    1   -3    8    2    0.001283    0.000000
   -5    1   -3    9    2   -0.000075   -0.000000
   -5    1   -3    1    3    0.000698   -0.000000
   -5    1   -3    2    3    0.000195    0.000000
   -5    1   -3    3    3    0.001487   -0.000000
   -5    1   -3    4    3   -0.004207   -0.000000
   -5    1   -3    5    3    0.001840   -0.000000
   -5    1   -3    6    3    0.000514   -0.000000
   -5    1   -3    7    3    0.000002   -0.000000
   -5    1   -3    8    3    0.002199   -0.000000
   -5    1   -3    9    3    0.000376    0.000000
   -5    1   -3    1    4    0.002199   -0.000000
   -5    1   -3    2    4   -0.000093   -0.000000
   -5    1   -3    3    4   -0.001449   -0.000000
   -5    1   -3    4    4    0.006375    0.000000
   -5    1   -3    5    4    0.001283    0.000000
   -5    1   -3    6    4   -0.000223   -0.000000
   -5    1   -3    7    4    0.000535    0.000000
   -5    1   -3    8    4   -0.006605   -0.000000
   -5    1   -3    9    4    0.000099   -0.000000
   -5    1   -3    1    5    0.000196   -0.000000
   -5    1   -3    2    5    0.004138    0.000000
   -5    1   -3    3    5    0.000766   -0.000000
   -5    1   -3    4    5   -0.000511   -0.000000
   -5    1   -3    5    5   -0.003626   -0.000000
   -5    1   -3    6    5   -0.000728   -0.000000
   -5    1   -3    7    5    0.000816   -0.000000
   -5    1   -3    8    5   -0.000092    0.000000
   -5    1   -3    9    5    0.000004   -0.000000
   -5    1   -3    1    6    0.000514    0.000000
   -5    1   -3    2    6   -0.000727   -0.000000
   -5    1   -3    3    6   -0.000570   -0.000000
   -5    1   -3    4    6    0.000349   -0.000000
   -5    1   -3    5    6    0.000594    0.000000
   -5    1   -3    6    6    0.000032    0.000000
   -5    1   -3    7    6    0.000050   -0.000000
   -5    1   -3    8    6   -0.000223    0.000000
   -5    1   -3    9    6   -0.000029    0.000000
   -5    1   -3    1    7    0.000002    0.000000
   -5    1   -3    2    7    0.000816    0.000000
   -5    1   -3    3    7    0.000062    0.000000
   -5    1   -3    4    7   -0.000666   -0.000000
   -5    1   -3    5    7   -0.000653    0.000000
   -5    1   -3    6    7    0.000050    0.000000
   -5    1   -3    7    7    0.000094    0.000000
   -5    1   -3    8    7    0.000535   -0.000000
   -5    1   -3    9    7    0.000041    0.000000
   -5    1   -3    1    8   -0.004207    0.000000
   -5    1   -3    2    8   -0.000511   -0.000000
   -5    1   -3    3    8    0.002028    0.000000
   -5    1   -3    4    8   -0.004714    0.000000
   -5    1   -3    5    8   -0.002496    0.000000
   -5    1   -3    6    8    0.000349    0.000000
   -5    1   -3    7    8   -0.000666   -0.000000
   -5    1   -3    8    8    0.006375   -0.000000
   -5    1   -3    9    8   -0.000171    0.000000
   -5    1   -3    1    9    0.000375   -0.000000
   -5    1   -3    2    9    0.000004    0.000000
   -5    1   -3    3    9   -0.000346    0.000000
   -5    1   -3    4    9   -0.000171   -0.000000
   -5    1   -3    5    9   -0.000075    0.000000
   -5    1   -3    6    9   -0.000029   -0.000000
   -5    1   -3    7    9    0.000041   -0.000000
   -5    1   -3    8    9    0.000099    0.000000
   -5    1   -3    9    9    0.000017    0.000000
   -5    1   -2    1    1   -0.001446   -0.000000
   -5    1   -2    2    1   -0.001112    0.000000
   -5    1   -2    3    1    0.002840    0.000000
   -5    1   -2    4    1   -0.001140   -0.000000
   -5    1   -2    5    1    0.001502   -0.000000
   -5    1   -2    6    1    0.000071    0.000000
   -5    1   -2    7    1    0.000233   -0.000000
   -5    1   -2    8    1   -0.000851    0.000000
   -5    1   -2    9    1    0.000176   -0.000000
   -5    1   -2    1    2    0.000852   -0.000000
   -5    1   -2    2    2   -0.001995   -0.000000
   -5    1   -2    3    2    0.001502    0.000000
   -5    1   -2    4    2   -0.001576   -0.000000
   -5    1   -2    5    2    0.004512    0.000000
   -5    1   -2    6    2    0.000530    0.000000
   -5    1   -2    7    2    0.000295    0.000000
   -5    1   -2    8    2   -0.000038    0.000000
   -5    1   -2    9    2   -0.000476   -0.000000
   -5    1   -2    1    3    0.002842   -0.000000
   -5    1   -2    2    3    0.001139   -0.000000
   -5    1   -2    3    3   -0.001446    0.000000
   -5    1   -2    4    3    0.001110   -0.000000
   -5    1   -2    5    3    0.000852    0.000000
   -5    1   -2    6    3    0.000177   -0.000000
   -5    1   -2    7    3    0.000233   -0.000000
   -5    1   -2    8    3   -0.001501   -0.000000
   -5    1   -2    9    3    0.000071    0.000000
   -5    1   -2    1    4   -0.001501   -0.000000
   -5    1   -2    2    4   -0.001576    0.000000
   -5    1   -2    3    4   -0.000851   -0.000000
   -5    1   -2    4    4   -0.001994   -0.000000
   -5    1   -2    5    4   -0.000038   -0.000000
   -5    1   -2    6    4    0.000477    0.000000
   -5    1   -2    7    4   -0.000299   -0.000000
   -5    1   -2    8    4    0.004512    0.000000
   -5    1   -2    9    4   -0.000526   -0.000000
   -5    1   -2    1    5    0.001139   -0.000000
   -5    1   -2    2    5    0.001562   -0.000000
   -5    1   -2    3    5   -0.001112    0.000000
   -5    1   -2    4    5    0.001199   -0.000000
   -5    1   -2    5    5   -0.001995    0.000000
   -5    1   -2    6    5   -0.000385    0.000000
   -5    1   -2    7    5    0.000384   -0.000000
   -5    1   -2    8    5   -0.001576   -0.000000
   -5    1   -2    9    5    0.000709   -0.000000
   -5    1   -2    1    6    0.000177    0.000000
   -5    1   -2    2    6   -0.000385    0.000000
   -5    1   -2    3    6    0.000071   -0.000000
   -5    1   -2    4    6   -0.000713   -0.000000
   -5    1   -2    5    6    0.000530   -0.000000
   -5    1   -2    6    6    0.000079   -0.000000
   -5    1   -2    7    6    0.000120   -0.000000
   -5    1   -2    8    6    0.000477    0.000000
   -5    1   -2    9    6   -0.000027   -0.000000
   -5    1   -2    1    7    0.000233    0.000000
   -5    1   -2    2    7    0.000384    0.000000
   -5    1   -2    3    7    0.000233    0.000000
   -5    1   -2    4    7   -0.000380    0.000000
   -5    1   -2    5    7    0.000295   -0.000000
   -5    1   -2    6    7    0.000120   -0.000000
   -5    1   -2    7    7    0.000052    0.000000
   -5    1   -2    8    7   -0.000299    0.000000
   -5    1   -2    9    7    0.000121   -0.000000
   -5    1   -2    1    8    0.001110    0.000000
   -5    1   -2    2    8    0.001199    0.000000
   -5    1   -2    3    8   -0.001140   -0.000000
   -5    1   -2    4    8    0.001560    0.000000
   -5    1   -2    5    8   -0.001576   -0.000000
   -5    1   -2    6    8   -0.000713    0.000000
   -5    1   -2    7    8   -0.000380    0.000000
   -5    1   -2    8    8   -0.001994    0.000000
   -5    1   -2    9    8    0.000383   -0.000000
   -5    1   -2    1    9    0.000071   -0.000000
   -5    1   -2    2    9    0.000709   -0.000000
   -5    1   -2    3    9    0.000176    0.000000
   -5    1   -2    4    9    0.000383    0.000000
   -5    1   -2    5    9   -0.000476   -0.000000
   -5    1   -2    6    9   -0.000027    0.000000
   -5    1   -2    7    9    0.000121    0.000000
   -5    1   -2    8    9   -0.000526    0.000000
   -5    1   -2    9    9    0.000078   -0.000000
   -5    2   -5    1    1    0.005547    0.000000
   -5    2   -5    2    1    0.000478    0.000000
   -5    2   -5    3    1   -0.005115   -0.000000
   -5    2   -5    4    1   -0.003785   -0.000000
   -5    2   -5    5    1    0.000470    0.000000
   -5    2   -5    6    1   -0.000001   -0.000000
   -5    2   -5    7    1    0.000001    0.000000
   -5    2   -5    8    1    0.003220    0.000000
   -5    2   -5    9    1    0.000622    0.000000
   -5    2   -5    1    2   -0.001292   -0.000000
   -5    2   -5    2    2   -0.010654   -0.000000
   -5    2   -5    3    2    0.000470    0.000000
   -5    2   -5    4    2   -0.000473    0.000000
   -5    2   -5    5    2    0.009567   -0.000000
   -5    2   -5    6    2   -0.000245   -0.000000
   -5    2   -5    7    2    0.000246    0.000000
   -5    2   -5    8    2    0.001296   -0.000000
   -5    2   -5    9    2    0.000228   -0.000000
   -5    2   -5    1    3   -0.007448   -0.000000
   -5    2   -5    2    3   -0.001301   -0.000000
   -5    2   -5    3    3    0.005547   -0.000000
   -5    2   -5    4    3    0.003220    0.000000
   -5    2   -5    5    3   -0.001292   -0.000000
   -5    2   -5    6    3    0.000001   -0.000000
   -5    2   -5    7    3   -0.000001   -0.000000
   -5    2   -5    8    3   -0.001111   -0.000000
   -5    2   -5    9    3   -0.000516   -0.000000
   -5    2   -5    1    4   -0.001111    0.000000
   -5    2   -5    2    4    0.001297   -0.000000
   -5    2   -5    3    4    0.003220   -0.000000
   -5    2   -5    4    4    0.005549    0.000000
   -5    2   -5    5    4    0.001296    0.000000
   -5    2   -5    6    4   -0.000001    0.000000
   -5    2   -5    7    4    0.000001    0.000000
   -5    2   -5    8    4   -0.007450    0.000000
   -5    2   -5    9    4    0.000516   -0.000000
   -5    2   -5    1    5   -0.001301    0.000000
   -5    2   -5    2    5    0.009565   -0.000000
   -5    2   -5    3    5    0.000478    0.000000
   -5    2   -5    4    5   -0.000474    0.000000
   -5    2   -5    5    5   -0.010654   -0.000000
   -5    2   -5    6    5    0.000245    0.000000
   -5    2   -5    7    5   -0.000245    0.000000
   -5    2   -5    8    5    0.001297    0.000000
   -5    2   -5    9    5    0.000230    0.000000
   -5    2   -5    1    6    0.000001   -0.000000
   -5    2   -5    2    6    0.000245   -0.000000
   -5    2   -5    3    6   -0.000001   -0.000000
   -5    2   -5    4    6    0.000001    0.000000
   -5    2   -5    5    6   -0.000245    0.000000
   -5    2   -5    6    6   -0.000124   -0.000000
   -5    2   -5    7    6    0.000077    0.000000
   -5    2   -5    8    6   -0.000001   -0.000000
   -5    2   -5    9    6   -0.000000    0.000000
   -5    2   -5    1    7   -0.000001    0.000000
   -5    2   -5    2    7   -0.000245   -0.000000
   -5    2   -5    3    7    0.000001   -0.000000
   -5    2   -5    4    7   -0.000001    0.000000
   -5    2   -5    5    7    0.000246    0.000000
   -5    2   -5    6    7    0.000077    0.000000
   -5    2   -5    7    7   -0.000124    0.000000
   -5    2   -5    8    7    0.000001   -0.000000
   -5    2   -5    9    7    0.000000    0.000000
   -5    2   -5    1    8    0.003220   -0.000000
   -5    2   -5    2    8   -0.000474    0.000000
   -5    2   -5    3    8   -0.003785    0.000000
   -5    2   -5    4    8   -0.005117   -0.000000
   -5    2   -5    5    8   -0.000473   -0.000000
   -5    2   -5    6    8    0.000001   -0.000000
   -5    2   -5    7    8   -0.000001    0.000000
   -5    2   -5    8    8    0.005549   -0.000000
   -5    2   -5    9    8   -0.000622    0.000000
   -5    2   -5    1    9   -0.000516    0.000000
   -5    2   -5    2    9    0.000230   -0.000000
   -5    2   -5    3    9    0.000622   -0.000000
   -5    2   -5    4    9   -0.000622   -0.000000
   -5    2   -5    5    9    0.000228    0.000000
   -5    2   -5    6    9   -0.000000   -0.000000
   -5    2   -5    7    9    0.000000   -0.000000
   -5    2   -5    8    9    0.000516    0.000000
   -5    2   -5    9    9   -0.000028   -0.000000
   -5    2   -4    1    1    0.001485    0.000000
   -5    2   -4    2    1    0.000766    0.000000
   -5    2   -4    3    1   -0.002169   -0.000000
   -5    2   -4    4    1   -0.001448    0.000000
   -5    2   -4    5    1   -0.001129   -0.000000
   -5    2   -4    6    1   -0.000572    0.000000
   -5    2   -4    7    1   -0.000060    0.000000
   -5    2   -4    8    1    0.002026   -0.000000
   -5    2   -4    9    1    0.000343    0.000000
   -5    2   -4    1    2    0.001841    0.000000
   -5    2   -4    2    2   -0.003626    0.000000
   -5    2   -4    3    2   -0.001129    0.000000
   -5    2   -4    4    2    0.001284   -0.000000
   -5    2   -4    5    2    0.005602    0.000000
   -5    2   -4    6    2    0.000596   -0.000000
   -5    2   -4    7    2    0.000651    0.000000
   -5    2   -4    8    2   -0.002497   -0.000000
   -5    2   -4    9    2    0.000078    0.000000
   -5    2   -4    1    3    0.000700    0.000000
   -5    2   -4    2    3    0.000196    0.000000
   -5    2   -4    3    3    0.001485   -0.000000
   -5    2   -4    4    3    0.002197    0.000000
   -5    2   -4    5    3    0.001841   -0.000000
   -5    2   -4    6    3    0.000516   -0.000000
   -5    2   -4    7    3   -0.000004    0.000000
   -5    2   -4    8    3   -0.004205   -0.000000
   -5    2   -4    9    3   -0.000373   -0.000000
   -5    2   -4    1    4   -0.004205    0.000000
   -5    2   -4    2    4   -0.000509    0.000000
   -5    2   -4    3    4    0.002026    0.000000
   -5    2   -4    4    4    0.006377   -0.000000
   -5    2   -4    5    4   -0.002497    0.000000
   -5    2   -4    6    4    0.000350    0.000000
   -5    2   -4    7    4    0.000665   -0.000000
   -5    2   -4    8    4   -0.004716    0.000000
   -5    2   -4    9    4    0.000172    0.000000
   -5    2   -4    1    5    0.000196   -0.000000
   -5    2   -4    2    5    0.004138    0.000000
   -5    2   -4    3    5    0.000766   -0.000000
   -5    2   -4    4    5   -0.000094    0.000000
   -5    2   -4    5    5   -0.003626   -0.000000
   -5    2   -4    6    5   -0.000730   -0.000000
   -5    2   -4    7    5   -0.000814    0.000000
   -5    2   -4    8    5   -0.000509   -0.000000
   -5    2   -4    9    5   -0.000007   -0.000000
   -5    2   -4    1    6    0.000516    0.000000
   -5    2   -4    2    6   -0.000730   -0.000000
   -5    2   -4    3    6   -0.000572   -0.000000
   -5    2   -4    4    6   -0.000224    0.000000
   -5    2   -4    5    6    0.000596    0.000000
   -5    2   -4    6    6    0.000032    0.000000
   -5    2   -4    7    6   -0.000050   -0.000000
   -5    2   -4    8    6    0.000350   -0.000000
   -5    2   -4    9    6    0.000029   -0.000000
   -5    2   -4    1    7   -0.000004   -0.000000
   -5    2   -4    2    7   -0.000814    0.000000
   -5    2   -4    3    7   -0.000060   -0.000000
   -5    2   -4    4    7   -0.000534    0.000000
   -5    2   -4    5    7    0.000651   -0.000000
   -5    2   -4    6    7   -0.000050   -0.000000
   -5    2   -4    7    7    0.000094    0.000000
   -5    2   -4    8    7    0.000665   -0.000000
   -5    2   -4    9    7    0.000041    0.000000
   -5    2   -4    1    8    0.002197   -0.000000
   -5    2   -4    2    8   -0.000094   -0.000000
   -5    2   -4    3    8   -0.001448   -0.000000
   -5    2   -4    4    8   -0.006606   -0.000000
   -5    2   -4    5    8    0.001284   -0.000000
   -5    2   -4    6    8   -0.000224   -0.000000
   -5    2   -4    7    8   -0.000534   -0.000000
   -5    2   -4    8    8    0.006377    0.000000
   -5    2   -4    9    8   -0.000100    0.000000
   -5    2   -4    1    9   -0.000373    0.000000
   -5    2   -4    2    9   -0.000007   -0.000000
   -5    2   -4    3    9    0.000343   -0.000000
   -5    2   -4    4    9   -0.000100   -0.000000
   -5    2   -4    5    9    0.000078   -0.000000
   -5    2   -4    6    9    0.000029    0.000000
   -5    2   -4    7    9    0.000041   -0.000000
   -5    2   -4    8    9    0.000172    0.000000
   -5    2   -4    9    9    0.000017    0.000000
   -5    2   -3    1    1    0.001326   -0.000000
   -5    2   -3    2    1    0.000639   -0.000000
   -5    2   -3    3    1   -0.001250    0.000000
   -5    2   -3    4    1   -0.000215    0.000000
   -5    2   -3    5    1   -0.000350    0.000000
   -5    2   -3    6    1   -0.000224   -0.000000
   -5    2   -3    7    1    0.000000   -0.000000
   -5    2   -3    8    1   -0.000213   -0.000000
   -5    2   -3    9    1   -0.000000    0.000000
   -5    2   -3    1    2    0.000316   -0.000000
   -5    2   -3    2    2    0.005266    0.000000
   -5    2   -3    3    2   -0.000350   -0.000000
   -5    2   -3    4    2   -0.000159    0.000000
   -5    2   -3    5    2   -0.004856   -0.000000
   -5    2   -3    6    2    0.000291   -0.000000
   -5    2   -3    7    2   -0.000000    0.000000
   -5    2   -3    8    2   -0.000158    0.000000
   -5    2   -3    9    2    0.000001    0.000000
   -5    2   -3    1    3   -0.001512   -0.000000
   -5    2   -3    2    3   -0.000839   -0.000000
   -5    2   -3    3    3    0.001326   -0.000000
   -5    2   -3    4    3   -0.000020   -0.000000
   -5    2   -3    5    3    0.000316    0.000000
   -5    2   -3    6    3    0.000260   -0.000000
   -5    2   -3    7    3   -0.000000   -0.000000
   -5    2   -3    8    3   -0.000021    0.000000
   -5    2   -3    9    3    0.000000    0.000000
   -5    2   -3    1    4   -0.000021    0.000000
   -5    2   -3    2    4    0.000119    0.000000
   -5    2   -3    3    4   -0.000213    0.000000
   -5    2   -3    4    4   -0.001956   -0.000000
   -5    2   -3    5    4   -0.000158   -0.000000
   -5    2   -3    6    4   -0.000042   -0.000000
   -5    2   -3    7    4    0.000484    0.000000
   -5    2   -3    8    4    0.002388   -0.000000
   -5    2   -3    9    4   -0.000814    0.000000
   -5    2   -3    1    5   -0.000839   -0.000000
   -5    2   -3    2    5   -0.006470   -0.000000
   -5    2   -3    3    5    0.000639    0.000000
   -5    2   -3    4    5    0.000121    0.000000
   -5    2   -3    5    5    0.005267   -0.000000
   -5    2   -3    6    5   -0.000161    0.000000
   -5    2   -3    7    5    0.000000   -0.000000
   -5    2   -3    8    5    0.000119   -0.000000
   -5    2   -3    9    5   -0.000000    0.000000
   -5    2   -3    1    6    0.000261   -0.000000
   -5    2   -3    2    6   -0.000161    0.000000
   -5    2   -3    3    6   -0.000224    0.000000
   -5    2   -3    4    6   -0.000048    0.000000
   -5    2   -3    5    6    0.000292   -0.000000
   -5    2   -3    6    6   -0.000010   -0.000000
   -5    2   -3    7    6   -0.000000    0.000000
   -5    2   -3    8    6   -0.000043   -0.000000
   -5    2   -3    9    6   -0.000000    0.000000
   -5    2   -3    1    7   -0.000000   -0.000000
   -5    2   -3    2    7    0.000000   -0.000000
   -5    2   -3    3    7    0.000000   -0.000000
   -5    2   -3    4    7   -0.000484    0.000000
   -5    2   -3    5    7   -0.000000    0.000000
   -5    2   -3    6    7   -0.000000    0.000000
   -5    2   -3    7    7   -0.000085    0.000000
   -5    2   -3    8    7    0.000484    0.000000
   -5    2   -3    9    7    0.000059    0.000000
   -5    2   -3    1    8   -0.000020   -0.000000
   -5    2   -3    2    8    0.000121    0.000000
   -5    2   -3    3    8   -0.000215    0.000000
   -5    2   -3    4    8    0.002387   -0.000000
   -5    2   -3    5    8   -0.000159   -0.000000
   -5    2   -3    6    8   -0.000048   -0.000000
   -5    2   -3    7    8   -0.000484   -0.000000
   -5    2   -3    8    8   -0.001956    0.000000
   -5    2   -3    9    8    0.000814   -0.000000
   -5    2   -3    1    9    0.000000    0.000000
   -5    2   -3    2    9   -0.000000    0.000000
   -5    2   -3    3    9   -0.000000    0.000000
   -5    2   -3    4    9    0.000814   -0.000000
   -5    2   -3    5    9    0.000001   -0.000000
   -5    2   -3    6    9   -0.000000   -0.000000
   -5    2   -3    7    9    0.000059    0.000000
   -5    2   -3    8    9   -0.000814    0.000000
   -5    2   -3    9    9    0.000052    0.000000
   -5    2   -2    1    1    0.001472   -0.000000
   -5    2   -2    2    1   -0.002720    0.000000
   -5    2   -2    3    1   -0.003248   -0.000000
   -5    2   -2    4    1   -0.000153   -0.000000
   -5    2   -2    5    1    0.001295   -0.000000
   -5    2   -2    6    1    0.000101    0.000000
   -5    2   -2    7    1   -0.000425    0.000000
   -5    2   -2    8    1    0.001392    0.000000
   -5    2   -2    9    1   -0.000091    0.000000
   -5    2   -2    1    2   -0.000171    0.000000
   -5    2   -2    2    2    0.001470   -0.000000
   -5    2   -2    3    2    0.001295    0.000000
   -5    2   -2    4    2   -0.000767   -0.000000
   -5    2   -2    5    2    0.000086   -0.000000
   -5    2   -2    6    2   -0.000375   -0.000000
   -5    2   -2    7    2   -0.000098    0.000000
   -5    2   -2    8    2    0.000663    0.000000
   -5    2   -2    9    2    0.000105   -0.000000
   -5    2   -2    1    3    0.000085   -0.000000
   -5    2   -2    2    3    0.001296   -0.000000
   -5    2   -2    3    3    0.001472   -0.000000
   -5    2   -2    4    3   -0.000766   -0.000000
   -5    2   -2    5    3   -0.000171    0.000000
   -5    2   -2    6    3   -0.000374   -0.000000
   -5    2   -2    7    3    0.000106   -0.000000
   -5    2   -2    8    3    0.000662    0.000000
   -5    2   -2    9    3   -0.000100    0.000000
   -5    2   -2    1    4    0.000662   -0.000000
   -5    2   -2    2    4    0.001390   -0.000000
   -5    2   -2    3    4    0.001392   -0.000000
   -5    2   -2    4    4   -0.006688    0.000000
   -5    2   -2    5    4    0.000663   -0.000000
   -5    2   -2    6    4    0.001013    0.000000
   -5    2   -2    7    4   -0.000161    0.000000
   -5    2   -2    8    4    0.003494   -0.000000
   -5    2   -2    9    4   -0.000156    0.000000
   -5    2   -2    1    5    0.001296   -0.000000
   -5    2   -2    2    5   -0.003246   -0.000000
   -5    2   -2    3    5   -0.002719   -0.000000
   -5    2   -2    4    5   -0.000151    0.000000
   -5    2   -2    5    5    0.001471    0.000000
   -5    2   -2    6    5    0.000102   -0.000000
   -5    2   -2    7    5   -0.000094   -0.000000
   -5    2   -2    8    5    0.001390    0.000000
   -5    2   -2    9    5   -0.000425    0.000000
   -5    2   -2    1    6   -0.000374   -0.000000
   -5    2   -2    2    6    0.000102   -0.000000
   -5    2   -2    3    6    0.000101   -0.000000
   -5    2   -2    4    6   -0.000610    0.000000
   -5    2   -2    5    6   -0.000375    0.000000
   -5    2   -2    6    6   -0.000048   -0.000000
   -5    2   -2    7    6   -0.000122   -0.000000
   -5    2   -2    8    6    0.001013    0.000000
   -5    2   -2    9    6   -0.000121    0.000000
   -5    2   -2    1    7    0.000106    0.000000
   -5    2   -2    2    7   -0.000094    0.000000
   -5    2   -2    3    7   -0.000425    0.000000
   -5    2   -2    4    7    0.000435   -0.000000
   -5    2   -2    5    7   -0.000098   -0.000000
   -5    2   -2    6    7   -0.000122   -0.000000
   -5    2   -2    7    7   -0.000130    0.000000
   -5    2   -2    8    7   -0.000161   -0.000000
   -5    2   -2    9    7    0.000033   -0.000000
   -5    2   -2    1    8   -0.000766    0.000000
   -5    2   -2    2    8   -0.000151    0.000000
   -5    2   -2    3    8   -0.000153    0.000000
   -5    2   -2    4    8    0.007615   -0.000000
   -5    2   -2    5    8   -0.000767    0.000000
   -5    2   -2    6    8   -0.000610   -0.000000
   -5    2   -2    7    8    0.000435   -0.000000
   -5    2   -2    8    8   -0.006688   -0.000000
   -5    2   -2    9    8    0.000431   -0.000000
   -5    2   -2    1    9   -0.000100   -0.000000
   -5    2   -2    2    9   -0.000425   -0.000000
   -5    2   -2    3    9   -0.000091    0.000000
   -5    2   -2    4    9    0.000431   -0.000000
   -5    2   -2    5    9    0.000105    0.000000
   -5    2   -2    6    9   -0.000121   -0.000000
   -5    2   -2    7    9    0.000033    0.000000
   -5    2   -2    8    9   -0.000156   -0.000000
   -5    2   -2    9    9   -0.000131    0.000000
   -5    2   -1    1    1   -0.001994    0.000000
   -5    2   -1    2    1   -0.001111    0.000000
   -5    2   -1    3    1    0.001560   -0.000000
   -5    2   -1    4    1    0.001198   -0.000000
   -5    2   -1    5    1    0.001140   -0.000000
   -5    2   -1    6    1   -0.000384    0.000000
   -5    2   -1    7    1    0.000713   -0.000000
   -5    2   -1    8    1   -0.001575    0.000000
   -5    2   -1    9    1    0.000379    0.000000
   -5    2   -1    1    2    0.000851   -0.000000
   -5    2   -1    2    2   -0.001446   -0.000000
   -5    2   -1    3    2    0.001140   -0.000000
   -5    2   -1    4    2    0.001112   -0.000000
   -5    2   -1    5    2    0.002841    0.000000
   -5    2   -1    6    2    0.000176   -0.000000
   -5    2   -1    7    2    0.000071    0.000000
   -5    2   -1    8    2   -0.001502   -0.000000
   -5    2   -1    9    2    0.000233   -0.000000
   -5    2   -1    1    3    0.004511    0.000000
   -5    2   -1    2    3    0.001501   -0.000000
   -5    2   -1    3    3   -0.001994   -0.000000
   -5    2   -1    4    3   -0.001576    0.000000
   -5    2   -1    5    3    0.000851   -0.000000
   -5    2   -1    6    3    0.000526    0.000000
   -5    2   -1    7    3   -0.000476   -0.000000
   -5    2   -1    8    3   -0.000038    0.000000
   -5    2   -1    9    3    0.000300    0.000000
   -5    2   -1    1    4   -0.000038   -0.000000
   -5    2   -1    2    4   -0.000851   -0.000000
   -5    2   -1    3    4   -0.001576   -0.000000
   -5    2   -1    4    4   -0.001995   -0.000000
   -5    2   -1    5    4   -0.001502   -0.000000
   -5    2   -1    6    4    0.000476   -0.000000
   -5    2   -1    7    4   -0.000530    0.000000
   -5    2   -1    8    4    0.004512    0.000000
   -5    2   -1    9    4   -0.000295   -0.000000
   -5    2   -1    1    5    0.001501   -0.000000
   -5    2   -1    2    5    0.002842   -0.000000
   -5    2   -1    3    5   -0.001111    0.000000
   -5    2   -1    4    5   -0.001140   -0.000000
   -5    2   -1    5    5   -0.001446    0.000000
   -5    2   -1    6    5    0.000071    0.000000
   -5    2   -1    7    5    0.000177   -0.000000
   -5    2   -1    8    5   -0.000851    0.000000
   -5    2   -1    9    5    0.000233   -0.000000
   -5    2   -1    1    6    0.000527    0.000000
   -5    2   -1    2    6    0.000071   -0.000000
   -5    2   -1    3    6   -0.000384    0.000000
   -5    2   -1    4    6   -0.000710   -0.000000
   -5    2   -1    5    6    0.000176    0.000000
   -5    2   -1    6    6    0.000078    0.000000
   -5    2   -1    7    6   -0.000027   -0.000000
   -5    2   -1    8    6    0.000476    0.000000
   -5    2   -1    9    6    0.000121   -0.000000
   -5    2   -1    1    7   -0.000476   -0.000000
   -5    2   -1    2    7    0.000177    0.000000
   -5    2   -1    3    7    0.000713   -0.000000
   -5    2   -1    4    7    0.000385    0.000000
   -5    2   -1    5    7    0.000072   -0.000000
   -5    2   -1    6    7   -0.000027   -0.000000
   -5    2   -1    7    7    0.000079    0.000000
   -5    2   -1    8    7   -0.000530   -0.000000
   -5    2   -1    9    7    0.000120    0.000000
   -5    2   -1    1    8   -0.001576   -0.000000
   -5    2   -1    2    8   -0.001140    0.000000
   -5    2   -1    3    8    0.001198    0.000000
   -5    2   -1    4    8    0.001562    0.000000
   -5    2   -1    5    8    0.001112    0.000000
   -5    2   -1    6    8   -0.000710    0.000000
   -5    2   -1    7    8    0.000385   -0.000000
   -5    2   -1    8    8   -0.001995   -0.000000
   -5    2   -1    9    8   -0.000384    0.000000
   -5    2   -1    1    9    0.000300   -0.000000
   -5    2   -1    2    9    0.000232   -0.000000
   -5    2   -1    3    9    0.000379    0.000000
   -5    2   -1    4    9   -0.000384    0.000000
   -5    2   -1    5    9    0.000233    0.000000
   -5    2   -1    6    9    0.000121   -0.000000
   -5    2   -1    7    9    0.000120    0.000000
   -5    2   -1    8    9   -0.000295    0.000000
   -5    2   -1    9    9    0.000051   -0.000000
   -5    3   -4    1    1   -0.001445   -0.000000
   -5    3   -4    2    1   -0.001111   -0.000000
   -5    3   -4    3    1    0.002841   -0.000000
   -5    3   -4    4    1   -0.000852    0.000000
   -5    3   -4    5    1    0.001501    0.000000
   -5    3   -4    6    1    0.000071    0.000000
   -5    3   -4    7    1   -0.000233   -0.000000
   -5    3   -4    8    1   -0.001139   -0.000000
   -5    3   -4    9    1   -0.000176    0.000000
   -5    3   -4    1    2    0.000852   -0.000000
   -5    3   -4    2    2   -0.001995   -0.000000
   -5    3   -4    3    2    0.001501   -0.000000
   -5    3   -4    4    2   -0.000038    0.000000
   -5    3   -4    5    2    0.004511    0.000000
   -5    3   -4    6    2    0.000527    0.000000
   -5    3   -4    7    2   -0.000297   -0.000000
   -5    3   -4    8    2   -0.001576    0.000000
   -5    3   -4    9    2    0.000478    0.000000
   -5    3   -4    1    3    0.002841    0.000000
   -5    3   -4    2    3    0.001139    0.000000
   -5    3   -4    3    3   -0.001445    0.000000
   -5    3   -4    4    3   -0.001501    0.000000
   -5    3   -4    5    3    0.000852    0.000000
   -5    3   -4    6    3    0.000177   -0.000000
   -5    3   -4    7    3   -0.000233    0.000000
   -5    3   -4    8    3    0.001111   -0.000000
   -5    3   -4    9    3   -0.000070   -0.000000
   -5    3   -4    1    4    0.001111    0.000000
   -5    3   -4    2    4    0.001199    0.000000
   -5    3   -4    3    4   -0.001139   -0.000000
   -5    3   -4    4    4   -0.001995    0.000000
   -5    3   -4    5    4   -0.001576   -0.000000
   -5    3   -4    6    4   -0.000710    0.000000
   -5    3   -4    7    4    0.000382   -0.000000
   -5    3   -4    8    4    0.001562    0.000000
   -5    3   -4    9    4   -0.000387   -0.000000
   -5    3   -4    1    5    0.001139    0.000000
   -5    3   -4    2    5    0.001562   -0.000000
   -5    3   -4    3    5   -0.001111    0.000000
   -5    3   -4    4    5   -0.001576   -0.000000
   -5    3   -4    5    5   -0.001995    0.000000
   -5    3   -4    6    5   -0.000383   -0.000000
   -5    3   -4    7    5   -0.000383   -0.000000
   -5    3   -4    8    5    0.001199   -0.000000
   -5    3   -4    9    5   -0.000711   -0.000000
   -5    3   -4    1    6    0.000177    0.000000
   -5    3   -4    2    6   -0.000384    0.000000
   -5    3   -4    3    6    0.000071   -0.000000
   -5    3   -4    4    6    0.000475    0.000000
   -5    3   -4    5    6    0.000527   -0.000000
   -5    3   -4    6    6    0.000078   -0.000000
   -5    3   -4    7    6   -0.000121    0.000000
   -5    3   -4    8    6   -0.000710   -0.000000
   -5    3   -4    9    6    0.000027   -0.000000
   -5    3   -4    1    7   -0.000233   -0.000000
   -5    3   -4    2    7   -0.000383   -0.000000
   -5    3   -4    3    7   -0.000233   -0.000000
   -5    3   -4    4    7    0.000298   -0.000000
   -5    3   -4    5    7   -0.000297    0.000000
   -5    3   -4    6    7   -0.000121   -0.000000
   -5    3   -4    7    7    0.000052   -0.000000
   -5    3   -4    8    7    0.000382    0.000000
   -5    3   -4    9    7    0.000120   -0.000000
   -5    3   -4    1    8   -0.001501   -0.000000
   -5    3   -4    2    8   -0.001576    0.000000
   -5    3   -4    3    8   -0.000852    0.000000
   -5    3   -4    4    8    0.004512   -0.000000
   -5    3   -4    5    8   -0.000038   -0.000000
   -5    3   -4    6    8    0.000475   -0.000000
   -5    3   -4    7    8    0.000297    0.000000
   -5    3   -4    8    8   -0.001995   -0.000000
   -5    3   -4    9    8    0.000529    0.000000
   -5    3   -4    1    9   -0.000070    0.000000
   -5    3   -4    2    9   -0.000711    0.000000
   -5    3   -4    3    9   -0.000176   -0.000000
   -5    3   -4    4    9    0.000529   -0.000000
   -5    3   -4    5    9    0.000478   -0.000000
   -5    3   -4    6    9    0.000027   -0.000000
   -5    3   -4    7    9    0.000120    0.000000
   -5    3   -4    8    9   -0.000387   -0.000000
   -5    3   -4    9    9    0.000078    0.000000
   -5    3   -3    1    1    0.001472    0.000000
   -5    3   -3    2    1   -0.002720    0.000000
   -5    3   -3    3    1   -0.003248   -0.000000
   -5    3   -3    4    1    0.001389    0.000000
   -5    3   -3    5    1    0.001295   -0.000000
   -5    3   -3    6    1    0.000102    0.000000
   -5    3   -3    7    1    0.000425   -0.000000
   -5    3   -3    8    1   -0.000150   -0.000000
   -5    3   -3    9    1    0.000092   -0.000000
   -5    3   -3    1    2   -0.000171    0.000000
   -5    3   -3    2    2    0.001470   -0.000000
   -5    3   -3    3    2    0.001295   -0.000000
   -5    3   -3    4    2    0.000662   -0.000000
   -5    3   -3    5    2    0.000085   -0.000000
   -5    3   -3    6    2   -0.000374    0.000000
   -5    3   -3    7    2    0.000100   -0.000000
   -5    3   -3    8    2   -0.000766    0.000000
   -5    3   -3    9    2   -0.000107    0.000000
   -5    3   -3    1    3    0.000085   -0.000000
   -5    3   -3    2    3    0.001296   -0.000000
   -5    3   -3    3    3    0.001472   -0.000000
   -5    3   -3    4    3    0.000664   -0.000000
   -5    3   -3    5    3   -0.000171    0.000000
   -5    3   -3    6    3   -0.000375    0.000000
   -5    3   -3    7    3   -0.000105    0.000000
   -5    3   -3    8    3   -0.000768    0.000000
   -5    3   -3    9    3    0.000099   -0.000000
   -5    3   -3    1    4   -0.000769    0.000000
   -5    3   -3    2    4   -0.000152    0.000000
   -5    3   -3    3    4   -0.000150    0.000000
   -5    3   -3    4    4   -0.006688    0.000000
   -5    3   -3    5    4   -0.000766    0.000000
   -5    3   -3    6    4   -0.000609   -0.000000
   -5    3   -3    7    4   -0.000433   -0.000000
   -5    3   -3    8    4    0.007614   -0.000000
   -5    3   -3    9    4   -0.000434    0.000000
   -5    3   -3    1    5    0.001296   -0.000000
   -5    3   -3    2    5   -0.003246   -0.000000
   -5    3   -3    3    5   -0.002720   -0.000000
   -5    3   -3    4    5    0.001390    0.000000
   -5    3   -3    5    5    0.001471    0.000000
   -5    3   -3    6    5    0.000101    0.000000
   -5    3   -3    7    5    0.000093    0.000000
   -5    3   -3    8    5   -0.000152    0.000000
   -5    3   -3    9    5    0.000425   -0.000000
   -5    3   -3    1    6   -0.000375   -0.000000
   -5    3   -3    2    6    0.000101    0.000000
   -5    3   -3    3    6    0.000102    0.000000
   -5    3   -3    4    6    0.001013    0.000000
   -5    3   -3    5    6   -0.000374    0.000000
   -5    3   -3    6    6   -0.000049    0.000000
   -5    3   -3    7    6    0.000122    0.000000
   -5    3   -3    8    6   -0.000609    0.000000
   -5    3   -3    9    6    0.000122   -0.000000
   -5    3   -3    1    7   -0.000104   -0.000000
   -5    3   -3    2    7    0.000093   -0.000000
   -5    3   -3    3    7    0.000425   -0.000000
   -5    3   -3    4    7    0.000157    0.000000
   -5    3   -3    5    7    0.000100    0.000000
   -5    3   -3    6    7    0.000122    0.000000
   -5    3   -3    7    7   -0.000131   -0.000000
   -5    3   -3    8    7   -0.000433    0.000000
   -5    3   -3    9    7    0.000033   -0.000000
   -5    3   -3    1    8    0.000664   -0.000000
   -5    3   -3    2    8    0.001390   -0.000000
   -5    3   -3    3    8    0.001390    0.000000
   -5    3   -3    4    8    0.003494   -0.000000
   -5    3   -3    5    8    0.000662    0.000000
   -5    3   -3    6    8    0.001013   -0.000000
   -5    3   -3    7    8    0.000157   -0.000000
   -5    3   -3    8    8   -0.006688   -0.000000
   -5    3   -3    9    8    0.000160   -0.000000
   -5    3   -3    1    9    0.000099    0.000000
   -5    3   -3    2    9    0.000425    0.000000
   -5    3   -3    3    9    0.000092   -0.000000
   -5    3   -3    4    9    0.000160    0.000000
   -5    3   -3    5    9   -0.000107   -0.000000
   -5    3   -3    6    9    0.000122    0.000000
   -5    3   -3    7    9    0.000033   -0.000000
   -5    3   -3    8    9   -0.000433    0.000000
   -5    3   -3    9    9   -0.000130   -0.000000
   -5    3   -2    1    1    0.005266   -0.000000
   -5    3   -2    2    1    0.000642    0.000000
   -5    3   -2    3    1   -0.006470    0.000000
   -5    3   -2    4    1    0.000119    0.000000
   -5    3   -2    5    1   -0.000841    0.000000
   -5    3   -2    6    1   -0.000161    0.000000
   -5    3   -2    7    1    0.000000    0.000000
   -5    3   -2    8    1    0.000121   -0.000000
   -5    3   -2    9    1   -0.000000   -0.000000
   -5    3   -2    1    2    0.000319   -0.000000
   -5    3   -2    2    2    0.001326   -0.000000
   -5    3   -2    3    2   -0.000841   -0.000000
   -5    3   -2    4    2   -0.000021    0.000000
   -5    3   -2    5    2   -0.001514   -0.000000
   -5    3   -2    6    2    0.000260   -0.000000
   -5    3   -2    7    2   -0.000000    0.000000
   -5    3   -2    8    2   -0.000020    0.000000
   -5    3   -2    9    2    0.000000   -0.000000
   -5    3   -2    1    3   -0.004854   -0.000000
   -5    3   -2    2    3   -0.000353   -0.000000
   -5    3   -2    3    3    0.005266    0.000000
   -5    3   -2    4    3   -0.000158   -0.000000
   -5    3   -2    5    3    0.000319   -0.000000
   -5    3   -2    6    3    0.000293    0.000000
   -5    3   -2    7    3   -0.000000   -0.000000
   -5    3   -2    8    3   -0.000160   -0.000000
   -5    3   -2    9    3    0.000000   -0.000000
   -5    3   -2    1    4   -0.000160   -0.000000
   -5    3   -2    2    4   -0.000214    0.000000
   -5    3   -2    3    4    0.000121    0.000000
   -5    3   -2    4    4   -0.001956   -0.000000
   -5    3   -2    5    4   -0.000020   -0.000000
   -5    3   -2    6    4   -0.000048    0.000000
   -5    3   -2    7    4   -0.000812   -0.000000
   -5    3   -2    8    4    0.002387   -0.000000
   -5    3   -2    9    4    0.000488   -0.000000
   -5    3   -2    1    5   -0.000353    0.000000
   -5    3   -2    2    5   -0.001250    0.000000
   -5    3   -2    3    5    0.000642    0.000000
   -5    3   -2    4    5   -0.000214    0.000000
   -5    3   -2    5    5    0.001326   -0.000000
   -5    3   -2    6    5   -0.000224   -0.000000
   -5    3   -2    7    5    0.000000    0.000000
   -5    3   -2    8    5   -0.000215   -0.000000
   -5    3   -2    9    5   -0.000000   -0.000000
   -5    3   -2    1    6    0.000293    0.000000
   -5    3   -2    2    6   -0.000224    0.000000
   -5    3   -2    3    6   -0.000161    0.000000
   -5    3   -2    4    6   -0.000043    0.000000
   -5    3   -2    5    6    0.000260   -0.000000
   -5    3   -2    6    6   -0.000010    0.000000
   -5    3   -2    7    6   -0.000000   -0.000000
   -5    3   -2    8    6   -0.000048   -0.000000
   -5    3   -2    9    6    0.000000   -0.000000
   -5    3   -2    1    7   -0.000000   -0.000000
   -5    3   -2    2    7    0.000000    0.000000
   -5    3   -2    3    7    0.000000    0.000000
   -5    3   -2    4    7    0.000812   -0.000000
   -5    3   -2    5    7   -0.000000    0.000000
   -5    3   -2    6    7   -0.000000    0.000000
   -5    3   -2    7    7    0.000053   -0.000000
   -5    3   -2    8    7   -0.000812    0.000000
   -5    3   -2    9    7    0.000058    0.000000
   -5    3   -2    1    8   -0.000158   -0.000000
   -5    3   -2    2    8   -0.000214   -0.000000
   -5    3   -2    3    8    0.000118   -0.000000
   -5    3   -2    4    8    0.002388    0.000000
   -5    3   -2    5    8   -0.000021    0.000000
   -5    3   -2    6    8   -0.000043   -0.000000
   -5    3   -2    7    8    0.000812   -0.000000
   -5    3   -2    8    8   -0.001956    0.000000
   -5    3   -2    9    8   -0.000488    0.000000
   -5    3   -2    1    9    0.000000    0.000000
   -5    3   -2    2    9   -0.000000    0.000000
   -5    3   -2    3    9   -0.000000    0.000000
   -5    3   -2    4    9   -0.000488    0.000000
   -5    3   -2    5    9    0.000000   -0.000000
   -5    3   -2    6    9    0.000000    0.000000
   -5    3   -2    7    9    0.000058   -0.000000
   -5    3   -2    8    9    0.000488    0.000000
   -5    3   -2    9    9   -0.000086    0.000000
   -5    3   -1    1    1   -0.003627   -0.000000
   -5    3   -1    2    1    0.000763   -0.000000
   -5    3   -1    3    1    0.004137   -0.000000
   -5    3   -1    4    1   -0.000506   -0.000000
   -5    3   -1    5    1    0.000199   -0.000000
   -5    3   -1    6    1   -0.000731    0.000000
   -5    3   -1    7    1    0.000010   -0.000000
   -5    3   -1    8    1   -0.000096    0.000000
   -5    3   -1    9    1    0.000813   -0.000000
   -5    3   -1    1    2    0.001838   -0.000000
   -5    3   -1    2    2    0.001487    0.000000
   -5    3   -1    3    2    0.000199    0.000000
   -5    3   -1    4    2   -0.004205   -0.000000
   -5    3   -1    5    2    0.000698   -0.000000
   -5    3   -1    6    2    0.000515   -0.000000
   -5    3   -1    7    2    0.000373    0.000000
   -5    3   -1    8    2    0.002197   -0.000000
   -5    3   -1    9    2    0.000003   -0.000000
   -5    3   -1    1    3    0.005604    0.000000
   -5    3   -1    2    3   -0.001126    0.000000
   -5    3   -1    3    3   -0.003627   -0.000000
   -5    3   -1    4    3   -0.002499   -0.000000
   -5    3   -1    5    3    0.001837    0.000000
   -5    3   -1    6    3    0.000597    0.000000
   -5    3   -1    7    3   -0.000081   -0.000000
   -5    3   -1    8    3    0.001286    0.000000
   -5    3   -1    9    3   -0.000650    0.000000
   -5    3   -1    1    4    0.001286   -0.000000
   -5    3   -1    2    4   -0.001448   -0.000000
   -5    3   -1    3    4   -0.000096   -0.000000
   -5    3   -1    4    4    0.006376    0.000000
   -5    3   -1    5    4    0.002197   -0.000000
   -5    3   -1    6    4   -0.000225   -0.000000
   -5    3   -1    7    4    0.000102    0.000000
   -5    3   -1    8    4   -0.006606   -0.000000
   -5    3   -1    9    4    0.000534    0.000000
   -5    3   -1    1    5   -0.001127   -0.000000
   -5    3   -1    2    5   -0.002169   -0.000000
   -5    3   -1    3    5    0.000763    0.000000
   -5    3   -1    4    5    0.002026   -0.000000
   -5    3   -1    5    5    0.001487    0.000000
   -5    3   -1    6    5   -0.000571    0.000000
   -5    3   -1    7    5   -0.000343   -0.000000
   -5    3   -1    8    5   -0.001448    0.000000
   -5    3   -1    9    5    0.000061   -0.000000
   -5    3   -1    1    6    0.000597   -0.000000
   -5    3   -1    2    6   -0.000571   -0.000000
   -5    3   -1    3    6   -0.000731   -0.000000
   -5    3   -1    4    6    0.000351    0.000000
   -5    3   -1    5    6    0.000515    0.000000
   -5    3   -1    6    6    0.000032   -0.000000
   -5    3   -1    7    6   -0.000029    0.000000
   -5    3   -1    8    6   -0.000225    0.000000
   -5    3   -1    9    6    0.000050   -0.000000
   -5    3   -1    1    7   -0.000080    0.000000
   -5    3   -1    2    7   -0.000344    0.000000
   -5    3   -1    3    7    0.000010    0.000000
   -5    3   -1    4    7   -0.000175    0.000000
   -5    3   -1    5    7    0.000374   -0.000000
   -5    3   -1    6    7   -0.000029    0.000000
   -5    3   -1    7    7    0.000017    0.000000
   -5    3   -1    8    7    0.000102    0.000000
   -5    3   -1    9    7    0.000041   -0.000000
   -5    3   -1    1    8   -0.002499    0.000000
   -5    3   -1    2    8    0.002026    0.000000
   -5    3   -1    3    8   -0.000506    0.000000
   -5    3   -1    4    8   -0.004715    0.000000
   -5    3   -1    5    8   -0.004205    0.000000
   -5    3   -1    6    8    0.000351   -0.000000
   -5    3   -1    7    8   -0.000175    0.000000
   -5    3   -1    8    8    0.006376    0.000000
   -5    3   -1    9    8   -0.000664    0.000000
   -5    3   -1    1    9   -0.000650    0.000000
   -5    3   -1    2    9    0.000061    0.000000
   -5    3   -1    3    9    0.000813    0.000000
   -5    3   -1    4    9   -0.000664   -0.000000
   -5    3   -1    5    9    0.000003    0.000000
   -5    3   -1    6    9    0.000050    0.000000
   -5    3   -1    7    9    0.000041    0.000000
   -5    3   -1    8    9    0.000534    0.000000
   -5    3   -1    9    9    0.000094    0.000000
   -5    3    0    1    1   -0.010654   -0.000000
   -5    3    0    2    1    0.000469    0.000000
   -5    3    0    3    1    0.009566   -0.000000
   -5    3    0    4    1    0.001300   -0.000000
   -5    3    0    5    1   -0.001292    0.000000
   -5    3    0    6    1    0.000244    0.000000
   -5    3    0    7    1   -0.000229    0.000000
   -5    3    0    8    1   -0.000477    0.000000
   -5    3    0    9    1    0.000246   -0.000000
   -5    3    0    1    2   -0.001301    0.000000
   -5    3    0    2    2    0.005547   -0.000000
   -5    3    0    3    2   -0.001292    0.000000
   -5    3    0    4    2   -0.001111    0.000000
   -5    3    0    5    2   -0.007449    0.000000
   -5    3    0    6    2    0.000001    0.000000
   -5    3    0    7    2    0.000516    0.000000
   -5    3    0    8    2    0.003220    0.000000
   -5    3    0    9    2   -0.000001    0.000000
   -5    3    0    1    3    0.009566    0.000000
   -5    3    0    2    3    0.000478    0.000000
   -5    3    0    3    3   -0.010654    0.000000
   -5    3    0    4    3    0.001293   -0.000000
   -5    3    0    5    3   -0.001301   -0.000000
   -5    3    0    6    3   -0.000245   -0.000000
   -5    3    0    7    3   -0.000229   -0.000000
   -5    3    0    8    3   -0.000470    0.000000
   -5    3    0    9    3   -0.000245   -0.000000
   -5    3    0    1    4   -0.000470   -0.000000
   -5    3    0    2    4   -0.003785    0.000000
   -5    3    0    3    4   -0.000477   -0.000000
   -5    3    0    4    4    0.005548   -0.000000
   -5    3    0    5    4    0.003220   -0.000000
   -5    3    0    6    4    0.000001    0.000000
   -5    3    0    7    4    0.000622   -0.000000
   -5    3    0    8    4   -0.005116    0.000000
   -5    3    0    9    4   -0.000002    0.000000
   -5    3    0    1    5    0.000478   -0.000000
   -5    3    0    2    5   -0.005115    0.000000
   -5    3    0    3    5    0.000469   -0.000000
   -5    3    0    4    5    0.003220    0.000000
   -5    3    0    5    5    0.005547   -0.000000
   -5    3    0    6    5   -0.000001   -0.000000
   -5    3    0    7    5   -0.000622    0.000000
   -5    3    0    8    5   -0.003785   -0.000000
   -5    3    0    9    5    0.000001   -0.000000
   -5    3    0    1    6   -0.000245    0.000000
   -5    3    0    2    6   -0.000001   -0.000000
   -5    3    0    3    6    0.000244    0.000000
   -5    3    0    4    6   -0.000001   -0.000000
   -5    3    0    5    6    0.000001    0.000000
   -5    3    0    6    6   -0.000124   -0.000000
   -5    3    0    7    6   -0.000000   -0.000000
   -5    3    0    8    6    0.000001   -0.000000
   -5    3    0    9    6   -0.000077    0.000000
   -5    3    0    1    7   -0.000229    0.000000
   -5    3    0    2    7   -0.000622   -0.000000
   -5    3    0    3    7   -0.000229   -0.000000
   -5    3    0    4    7   -0.000516   -0.000000
   -5    3    0    5    7    0.000516    0.000000
   -5    3    0    6    7   -0.000000    0.000000
   -5    3    0    7    7   -0.000028    0.000000
   -5    3    0    8    7    0.000622    0.000000
   -5    3    0    9    7   -0.000000   -0.000000
   -5    3    0    1    8    0.001293   -0.000000
   -5    3    0    2    8    0.003220   -0.000000
   -5    3    0    3    8    0.001300    0.000000
   -5    3    0    4    8   -0.007449    0.000000
   -5    3    0    5    8   -0.001111   -0.000000
   -5    3    0    6    8   -0.000001    0.000000
   -5    3    0    7    8   -0.000516    0.000000
   -5    3    0    8    8    0.005548   -0.000000
   -5    3    0    9    8    0.000001    0.000000
   -5    3    0    1    9   -0.000245    0.000000
   -5    3    0    2    9    0.000001    0.000000
   -5    3    0    3    9    0.000246   -0.000000
   -5    3    0    4    9    0.000001   -0.000000
   -5    3    0    5    9   -0.000001    0.000000
   -5    3    0    6    9   -0.000077    0.000000
   -5    3    0    7    9   -0.000000   -0.000000
   -5    3    0    8    9   -0.000002   -0.000000
   -5    3    0    9    9   -0.000124   -0.000000
   -5    4   -3    1    1   -0.001994    0.000000
   -5    4   -3    2    1   -0.001111    0.000000
   -5    4   -3    3    1    0.001560   -0.000000
   -5    4   -3    4    1   -0.001576   -0.000000
   -5    4   -3    5    1    0.001140   -0.000000
   -5    4   -3    6    1   -0.000384   -0.000000
   -5    4   -3    7    1   -0.000712    0.000000
   -5    4   -3    8    1    0.001198    0.000000
   -5    4   -3    9    1   -0.000381   -0.000000
   -5    4   -3    1    2    0.000851    0.000000
   -5    4   -3    2    2   -0.001447    0.000000
   -5    4   -3    3    2    0.001140    0.000000
   -5    4   -3    4    2   -0.001502    0.000000
   -5    4   -3    5    2    0.002841   -0.000000
   -5    4   -3    6    2    0.000177   -0.000000
   -5    4   -3    7    2   -0.000072   -0.000000
   -5    4   -3    8    2    0.001112   -0.000000
   -5    4   -3    9    2   -0.000232    0.000000
   -5    4   -3    1    3    0.004513    0.000000
   -5    4   -3    2    3    0.001501   -0.000000
   -5    4   -3    3    3   -0.001994    0.000000
   -5    4   -3    4    3   -0.000038    0.000000
   -5    4   -3    5    3    0.000850    0.000000
   -5    4   -3    6    3    0.000530    0.000000
   -5    4   -3    7    3    0.000475    0.000000
   -5    4   -3    8    3   -0.001576    0.000000
   -5    4   -3    9    3   -0.000297   -0.000000
   -5    4   -3    1    4   -0.001576   -0.000000
   -5    4   -3    2    4   -0.001140    0.000000
   -5    4   -3    3    4    0.001198    0.000000
   -5    4   -3    4    4   -0.001994    0.000000
   -5    4   -3    5    4    0.001112    0.000000
   -5    4   -3    6    4   -0.000712   -0.000000
   -5    4   -3    7    4   -0.000382   -0.000000
   -5    4   -3    8    4    0.001560   -0.000000
   -5    4   -3    9    4    0.000381    0.000000
   -5    4   -3    1    5    0.001502   -0.000000
   -5    4   -3    2    5    0.002842   -0.000000
   -5    4   -3    3    5   -0.001111    0.000000
   -5    4   -3    4    5   -0.000851    0.000000
   -5    4   -3    5    5   -0.001446   -0.000000
   -5    4   -3    6    5    0.000071    0.000000
   -5    4   -3    7    5   -0.000177    0.000000
   -5    4   -3    8    5   -0.001139    0.000000
   -5    4   -3    9    5   -0.000232   -0.000000
   -5    4   -3    1    6    0.000530    0.000000
   -5    4   -3    2    6    0.000071   -0.000000
   -5    4   -3    3    6   -0.000384    0.000000
   -5    4   -3    4    6    0.000476    0.000000
   -5    4   -3    5    6    0.000177    0.000000
   -5    4   -3    6    6    0.000079    0.000000
   -5    4   -3    7    6    0.000026    0.000000
   -5    4   -3    8    6   -0.000712    0.000000
   -5    4   -3    9    6   -0.000120    0.000000
   -5    4   -3    1    7    0.000475   -0.000000
   -5    4   -3    2    7   -0.000177   -0.000000
   -5    4   -3    3    7   -0.000712    0.000000
   -5    4   -3    4    7    0.000528    0.000000
   -5    4   -3    5    7   -0.000072    0.000000
   -5    4   -3    6    7    0.000026   -0.000000
   -5    4   -3    7    7    0.000079    0.000000
   -5    4   -3    8    7   -0.000382    0.000000
   -5    4   -3    9    7    0.000121    0.000000
   -5    4   -3    1    8   -0.000038   -0.000000
   -5    4   -3    2    8   -0.000851   -0.000000
   -5    4   -3    3    8   -0.001576    0.000000
   -5    4   -3    4    8    0.004511   -0.000000
   -5    4   -3    5    8   -0.001502   -0.000000
   -5    4   -3    6    8    0.000476   -0.000000
   -5    4   -3    7    8    0.000528    0.000000
   -5    4   -3    8    8   -0.001994   -0.000000
   -5    4   -3    9    8    0.000297    0.000000
   -5    4   -3    1    9   -0.000297    0.000000
   -5    4   -3    2    9   -0.000232   -0.000000
   -5    4   -3    3    9   -0.000381   -0.000000
   -5    4   -3    4    9    0.000297   -0.000000
   -5    4   -3    5    9   -0.000232   -0.000000
   -5    4   -3    6    9   -0.000120   -0.000000
   -5    4   -3    7    9    0.000121   -0.000000
   -5    4   -3    8    9    0.000381    0.000000
   -5    4   -3    9    9    0.000050   -0.000000
   -5    4   -2    1    1   -0.003627   -0.000000
   -5    4   -2    2    1    0.000763   -0.000000
   -5    4   -2    3    1    0.004138    0.000000
   -5    4   -2    4    1   -0.000092   -0.000000
   -5    4   -2    5    1    0.000198   -0.000000
   -5    4   -2    6    1   -0.000727    0.000000
   -5    4   -2    7    1   -0.000008    0.000000
   -5    4   -2    8    1   -0.000510   -0.000000
   -5    4   -2    9    1   -0.000816    0.000000
   -5    4   -2    1    2    0.001838    0.000000
   -5    4   -2    2    2    0.001487   -0.000000
   -5    4   -2    3    2    0.000199    0.000000
   -5    4   -2    4    2    0.002198   -0.000000
   -5    4   -2    5    2    0.000697   -0.000000
   -5    4   -2    6    2    0.000514   -0.000000
   -5    4   -2    7    2   -0.000375   -0.000000
   -5    4   -2    8    2   -0.004206   -0.000000
   -5    4   -2    9    2   -0.000001    0.000000
   -5    4   -2    1    3    0.005605    0.000000
   -5    4   -2    2    3   -0.001126    0.000000
   -5    4   -2    3    3   -0.003627   -0.000000
   -5    4   -2    4    3    0.001283    0.000000
   -5    4   -2    5    3    0.001838    0.000000
   -5    4   -2    6    3    0.000594   -0.000000
   -5    4   -2    7    3    0.000079    0.000000
   -5    4   -2    8    3   -0.002497    0.000000
   -5    4   -2    9    3    0.000653   -0.000000
   -5    4   -2    1    4   -0.002496    0.000000
   -5    4   -2    2    4    0.002027    0.000000
   -5    4   -2    3    4   -0.000510    0.000000
   -5    4   -2    4    4    0.006376   -0.000000
   -5    4   -2    5    4   -0.004206    0.000000
   -5    4   -2    6    4    0.000349   -0.000000
   -5    4   -2    7    4    0.000174   -0.000000
   -5    4   -2    8    4   -0.004715    0.000000
   -5    4   -2    9    4    0.000665   -0.000000
   -5    4   -2    1    5   -0.001127   -0.000000
   -5    4   -2    2    5   -0.002170    0.000000
   -5    4   -2    3    5    0.000764    0.000000
   -5    4   -2    4    5   -0.001448    0.000000
   -5    4   -2    5    5    0.001488    0.000000
   -5    4   -2    6    5   -0.000570    0.000000
   -5    4   -2    7    5    0.000345    0.000000
   -5    4   -2    8    5    0.002026   -0.000000
   -5    4   -2    9    5   -0.000064    0.000000
   -5    4   -2    1    6    0.000594   -0.000000
   -5    4   -2    2    6   -0.000570   -0.000000
   -5    4   -2    3    6   -0.000727   -0.000000
   -5    4   -2    4    6   -0.000223    0.000000
   -5    4   -2    5    6    0.000514    0.000000
   -5    4   -2    6    6    0.000032   -0.000000
   -5    4   -2    7    6    0.000028    0.000000
   -5    4   -2    8    6    0.000349   -0.000000
   -5    4   -2    9    6   -0.000050   -0.000000
   -5    4   -2    1    7    0.000078   -0.000000
   -5    4   -2    2    7    0.000345   -0.000000
   -5    4   -2    3    7   -0.000007   -0.000000
   -5    4   -2    4    7   -0.000102   -0.000000
   -5    4   -2    5    7   -0.000375    0.000000
   -5    4   -2    6    7    0.000028    0.000000
   -5    4   -2    7    7    0.000017   -0.000000
   -5    4   -2    8    7    0.000174    0.000000
   -5    4   -2    9    7    0.000041   -0.000000
   -5    4   -2    1    8    0.001283   -0.000000
   -5    4   -2    2    8   -0.001448   -0.000000
   -5    4   -2    3    8   -0.000093    0.000000
   -5    4   -2    4    8   -0.006605   -0.000000
   -5    4   -2    5    8    0.002198   -0.000000
   -5    4   -2    6    8   -0.000223   -0.000000
   -5    4   -2    7    8   -0.000102   -0.000000
   -5    4   -2    8    8    0.006376    0.000000
   -5    4   -2    9    8   -0.000535   -0.000000
   -5    4   -2    1    9    0.000653   -0.000000
   -5    4   -2    2    9   -0.000064   -0.000000
   -5    4   -2    3    9   -0.000816    0.000000
   -5    4   -2    4    9   -0.000535    0.000000
   -5    4   -2    5    9   -0.000001   -0.000000
   -5    4   -2    6    9   -0.000050   -0.000000
   -5    4   -2    7    9    0.000041    0.000000
   -5    4   -2    8    9    0.000665   -0.000000
[...]
    5   -1    4    7    1   -0.000000   -0.000000
    5   -1    4    8    1   -0.000640    0.000000
    5   -1    4    9    1    0.000000   -0.000000
    5   -1    4    1    2   -0.002167   -0.000000
    5   -1    4    2    2    0.001280   -0.000000
    5   -1    4    3    2    0.001204   -0.000000
    5   -1    4    4    2    0.000457    0.000000
    5   -1    4    5    2   -0.002463    0.000000
    5   -1    4    6    2    0.000074   -0.000000
    5   -1    4    7    2   -0.000000   -0.000000
    5   -1    4    8    2    0.000457    0.000000
    5   -1    4    9    2    0.000000    0.000000
    5   -1    4    1    3   -0.000035   -0.000000
    5   -1    4    2    3   -0.002166   -0.000000
    5   -1    4    3    3   -0.003534   -0.000000
    5   -1    4    4    3    0.001655    0.000000
    5   -1    4    5    3   -0.002168   -0.000000
    5   -1    4    6    3   -0.000001   -0.000000
    5   -1    4    7    3    0.000000    0.000000
    5   -1    4    8    3    0.001656    0.000000
    5   -1    4    9    3    0.000000    0.000000
    5   -1    4    1    4    0.001656   -0.000000
    5   -1    4    2    4    0.000457   -0.000000
    5   -1    4    3    4   -0.000640   -0.000000
    5   -1    4    4    4    0.001113   -0.000000
    5   -1    4    5    4    0.000457   -0.000000
    5   -1    4    6    4    0.000001    0.000000
    5   -1    4    7    4   -0.000001    0.000000
    5   -1    4    8    4   -0.002020   -0.000000
    5   -1    4    9    4   -0.000602   -0.000000
    5   -1    4    1    5   -0.002165    0.000000
    5   -1    4    2    5   -0.002465    0.000000
    5   -1    4    3    5    0.001201    0.000000
    5   -1    4    4    5    0.000458    0.000000
    5   -1    4    5    5    0.001280    0.000000
    5   -1    4    6    5   -0.000074   -0.000000
    5   -1    4    7    5    0.000000    0.000000
    5   -1    4    8    5    0.000457    0.000000
    5   -1    4    9    5   -0.000000   -0.000000
    5   -1    4    1    6   -0.000001   -0.000000
    5   -1    4    2    6   -0.000074   -0.000000
    5   -1    4    3    6    0.000001    0.000000
    5   -1    4    4    6   -0.000001    0.000000
    5   -1    4    5    6    0.000074    0.000000
    5   -1    4    6    6   -0.000109    0.000000
    5   -1    4    7    6    0.000001   -0.000000
    5   -1    4    8    6    0.000001    0.000000
    5   -1    4    9    6   -0.000000    0.000000
    5   -1    4    1    7    0.000000    0.000000
    5   -1    4    2    7    0.000000    0.000000
    5   -1    4    3    7   -0.000000   -0.000000
    5   -1    4    4    7    0.000001    0.000000
    5   -1    4    5    7   -0.000000   -0.000000
    5   -1    4    6    7    0.000001   -0.000000
    5   -1    4    7    7    0.000242    0.000000
    5   -1    4    8    7   -0.000001   -0.000000
    5   -1    4    9    7   -0.000001    0.000000
    5   -1    4    1    8    0.001655   -0.000000
    5   -1    4    2    8    0.000458   -0.000000
    5   -1    4    3    8   -0.000638   -0.000000
    5   -1    4    4    8   -0.002022    0.000000
    5   -1    4    5    8    0.000457   -0.000000
    5   -1    4    6    8   -0.000001   -0.000000
    5   -1    4    7    8    0.000001    0.000000
    5   -1    4    8    8    0.001113   -0.000000
    5   -1    4    9    8    0.000602   -0.000000
    5   -1    4    1    9    0.000000    0.000000
    5   -1    4    2    9   -0.000000   -0.000000
    5   -1    4    3    9    0.000000    0.000000
    5   -1    4    4    9    0.000602   -0.000000
    5   -1    4    5    9    0.000000    0.000000
    5   -1    4    6    9   -0.000000   -0.000000
    5   -1    4    7    9   -0.000001   -0.000000
    5   -1    4    8    9   -0.000602    0.000000
    5   -1    4    9    9   -0.000023    0.000000
    5    0    3    1    1    0.005549   -0.000000
    5    0    3    2    1   -0.001292    0.000000
    5    0    3    3    1   -0.007450    0.000000
    5    0    3    4    1    0.003219    0.000000
    5    0    3    5    1   -0.001301   -0.000000
    5    0    3    6    1   -0.000001   -0.000000
    5    0    3    7    1    0.000001   -0.000000
    5    0    3    8    1   -0.001111    0.000000
    5    0    3    9    1    0.000516    0.000000
    5    0    3    1    2    0.000478   -0.000000
    5    0    3    2    2   -0.010654    0.000000
    5    0    3    3    2   -0.001301    0.000000
    5    0    3    4    2   -0.000472   -0.000000
    5    0    3    5    2    0.009565    0.000000
    5    0    3    6    2    0.000246    0.000000
    5    0    3    7    2    0.000244   -0.000000
    5    0    3    8    2    0.001295   -0.000000
    5    0    3    9    2   -0.000229   -0.000000
    5    0    3    1    3   -0.005117   -0.000000
    5    0    3    2    3    0.000469   -0.000000
    5    0    3    3    3    0.005549   -0.000000
    5    0    3    4    3   -0.003785   -0.000000
    5    0    3    5    3    0.000478   -0.000000
    5    0    3    6    3    0.000002   -0.000000
    5    0    3    7    3   -0.000001    0.000000
    5    0    3    8    3    0.003220    0.000000
    5    0    3    9    3   -0.000622   -0.000000
    5    0    3    1    4    0.003220   -0.000000
    5    0    3    2    4    0.001298   -0.000000
    5    0    3    3    4   -0.001111    0.000000
    5    0    3    4    4    0.005547    0.000000
    5    0    3    5    4    0.001295    0.000000
    5    0    3    6    4    0.000001    0.000000
    5    0    3    7    4   -0.000001    0.000000
    5    0    3    8    4   -0.007448    0.000000
    5    0    3    9    4   -0.000516    0.000000
    5    0    3    1    5    0.000469   -0.000000
    5    0    3    2    5    0.009566    0.000000
    5    0    3    3    5   -0.001292    0.000000
    5    0    3    4    5   -0.000476    0.000000
    5    0    3    5    5   -0.010654    0.000000
    5    0    3    6    5   -0.000245   -0.000000
    5    0    3    7    5   -0.000246   -0.000000
    5    0    3    8    5    0.001298   -0.000000
    5    0    3    9    5   -0.000229    0.000000
    5    0    3    1    6    0.000002    0.000000
    5    0    3    2    6   -0.000245    0.000000
    5    0    3    3    6   -0.000001    0.000000
    5    0    3    4    6   -0.000001    0.000000
    5    0    3    5    6    0.000246   -0.000000
    5    0    3    6    6   -0.000124    0.000000
    5    0    3    7    6   -0.000077   -0.000000
    5    0    3    8    6    0.000001   -0.000000
    5    0    3    9    6   -0.000000   -0.000000
    5    0    3    1    7   -0.000001   -0.000000
    5    0    3    2    7   -0.000246    0.000000
    5    0    3    3    7    0.000001    0.000000
    5    0    3    4    7    0.000001    0.000000
    5    0    3    5    7    0.000245    0.000000
    5    0    3    6    7   -0.000077   -0.000000
    5    0    3    7    7   -0.000124    0.000000
    5    0    3    8    7   -0.000001   -0.000000
    5    0    3    9    7    0.000000   -0.000000
    5    0    3    1    8   -0.003785    0.000000
    5    0    3    2    8   -0.000476   -0.000000
    5    0    3    3    8    0.003220    0.000000
    5    0    3    4    8   -0.005115   -0.000000
    5    0    3    5    8   -0.000472   -0.000000
    5    0    3    6    8   -0.000001   -0.000000
    5    0    3    7    8    0.000002    0.000000
    5    0    3    8    8    0.005547   -0.000000
    5    0    3    9    8    0.000622   -0.000000
    5    0    3    1    9   -0.000622    0.000000
    5    0    3    2    9   -0.000229   -0.000000
    5    0    3    3    9    0.000516   -0.000000
    5    0    3    4    9    0.000622    0.000000
    5    0    3    5    9   -0.000229    0.000000
    5    0    3    6    9   -0.000000    0.000000
    5    0    3    7    9    0.000000    0.000000
    5    0    3    8    9   -0.000516   -0.000000
    5    0    3    9    9   -0.000028   -0.000000
    6   -4    2    1    1    0.007662   -0.000000
    6   -4    2    2    1   -0.000828    0.000000
    6   -4    2    3    1   -0.008393   -0.000000
    6   -4    2    4    1    0.000378   -0.000000
    6   -4    2    5    1   -0.000062    0.000000
    6   -4    2    6    1    0.001170    0.000000
    6   -4    2    7    1   -0.000002   -0.000000
    6   -4    2    8    1    0.000379   -0.000000
    6   -4    2    9    1    0.000002    0.000000
    6   -4    2    1    2   -0.000060   -0.000000
    6   -4    2    2    2    0.006024    0.000000
    6   -4    2    3    2   -0.000061   -0.000000
    6   -4    2    4    2    0.000828    0.000000
    6   -4    2    5    2   -0.007120   -0.000000
    6   -4    2    6    2    0.000000    0.000000
    6   -4    2    7    2    0.000000   -0.000000
    6   -4    2    8    2    0.000828    0.000000
    6   -4    2    9    2    0.000000   -0.000000
    6   -4    2    1    3   -0.008394   -0.000000
    6   -4    2    2    3   -0.000828    0.000000
    6   -4    2    3    3    0.007662   -0.000000
    6   -4    2    4    3    0.000378    0.000000
    6   -4    2    5    3   -0.000060    0.000000
    6   -4    2    6    3   -0.001169   -0.000000
    6   -4    2    7    3    0.000002    0.000000
    6   -4    2    8    3    0.000379    0.000000
    6   -4    2    9    3   -0.000003   -0.000000
    6   -4    2    1    4    0.000379    0.000000
    6   -4    2    2    4    0.000061   -0.000000
    6   -4    2    3    4    0.000379   -0.000000
    6   -4    2    4    4    0.007662    0.000000
    6   -4    2    5    4    0.000828   -0.000000
    6   -4    2    6    4    0.000002    0.000000
    6   -4    2    7    4    0.001170    0.000000
    6   -4    2    8    4   -0.008393   -0.000000
    6   -4    2    9    4   -0.000003    0.000000
    6   -4    2    1    5   -0.000829   -0.000000
    6   -4    2    2    5   -0.007119    0.000000
    6   -4    2    3    5   -0.000828   -0.000000
    6   -4    2    4    5    0.000060    0.000000
    6   -4    2    5    5    0.006024   -0.000000
    6   -4    2    6    5   -0.000000   -0.000000
    6   -4    2    7    5   -0.000000    0.000000
    6   -4    2    8    5    0.000061    0.000000
    6   -4    2    9    5   -0.000000    0.000000
    6   -4    2    1    6   -0.001169    0.000000
    6   -4    2    2    6   -0.000000   -0.000000
    6   -4    2    3    6    0.001170   -0.000000
    6   -4    2    4    6   -0.000002    0.000000
    6   -4    2    5    6    0.000000    0.000000
    6   -4    2    6    6    0.000083    0.000000
    6   -4    2    7    6   -0.000000    0.000000
    6   -4    2    8    6    0.000002    0.000000
    6   -4    2    9    6   -0.000000    0.000000
    6   -4    2    1    7    0.000002    0.000000
    6   -4    2    2    7   -0.000000    0.000000
    6   -4    2    3    7   -0.000002   -0.000000
    6   -4    2    4    7   -0.001170   -0.000000
    6   -4    2    5    7    0.000000   -0.000000
    6   -4    2    6    7   -0.000000   -0.000000
    6   -4    2    7    7    0.000083   -0.000000
    6   -4    2    8    7    0.001170   -0.000000
    6   -4    2    9    7    0.000000    0.000000
    6   -4    2    1    8    0.000378    0.000000
    6   -4    2    2    8    0.000060   -0.000000
    6   -4    2    3    8    0.000378   -0.000000
    6   -4    2    4    8   -0.008394    0.000000
    6   -4    2    5    8    0.000828   -0.000000
    6   -4    2    6    8   -0.000002    0.000000
    6   -4    2    7    8   -0.001170   -0.000000
    6   -4    2    8    8    0.007662    0.000000
    6   -4    2    9    8    0.000003    0.000000
    6   -4    2    1    9   -0.000003   -0.000000
    6   -4    2    2    9   -0.000000   -0.000000
    6   -4    2    3    9    0.000002    0.000000
    6   -4    2    4    9    0.000003    0.000000
    6   -4    2    5    9    0.000000    0.000000
    6   -4    2    6    9   -0.000000    0.000000
    6   -4    2    7    9    0.000000   -0.000000
    6   -4    2    8    9   -0.000003   -0.000000
    6   -4    2    9    9    0.000277    0.000000
    6   -3    3    1    1    0.005546   -0.000000
    6   -3    3    2    1    0.003785   -0.000000
    6   -3    3    3    1   -0.005114    0.000000
    6   -3    3    4    1   -0.000477   -0.000000
    6   -3    3    5    1   -0.003219   -0.000000
    6   -3    3    6    1   -0.000622    0.000000
    6   -3    3    7    1    0.000001   -0.000000
    6   -3    3    8    1   -0.000471   -0.000000
    6   -3    3    9    1   -0.000002    0.000000
    6   -3    3    1    2    0.001111    0.000000
    6   -3    3    2    2    0.005549    0.000000
    6   -3    3    3    2   -0.003219   -0.000000
    6   -3    3    4    2    0.001295   -0.000000
    6   -3    3    5    2   -0.007450   -0.000000
    6   -3    3    6    2    0.000516    0.000000
    6   -3    3    7    2   -0.000001   -0.000000
    6   -3    3    8    2    0.001298   -0.000000
    6   -3    3    9    2    0.000001   -0.000000
    6   -3    3    1    3   -0.007447   -0.000000
    6   -3    3    2    3   -0.003221    0.000000
    6   -3    3    3    3    0.005546   -0.000000
    6   -3    3    4    3    0.001300   -0.000000
    6   -3    3    5    3    0.001111   -0.000000
    6   -3    3    6    3    0.000516    0.000000
    6   -3    3    7    3   -0.000001    0.000000
    6   -3    3    8    3    0.001294    0.000000
    6   -3    3    9    3    0.000001   -0.000000
    6   -3    3    1    4    0.001294   -0.000000
    6   -3    3    2    4   -0.000475    0.000000
    6   -3    3    3    4   -0.000471    0.000000
    6   -3    3    4    4   -0.010654    0.000000
    6   -3    3    5    4    0.001298   -0.000000
    6   -3    3    6    4    0.000229    0.000000
    6   -3    3    7    4   -0.000246    0.000000
    6   -3    3    8    4    0.009566    0.000000
    6   -3    3    9    4   -0.000244    0.000000
    6   -3    3    1    5   -0.003220   -0.000000
    6   -3    3    2    5   -0.005117    0.000000
    6   -3    3    3    5    0.003785   -0.000000
    6   -3    3    4    5   -0.000472   -0.000000
    6   -3    3    5    5    0.005549   -0.000000
    6   -3    3    6    5   -0.000622    0.000000
    6   -3    3    7    5    0.000001   -0.000000
    6   -3    3    8    5   -0.000475    0.000000
    6   -3    3    9    5   -0.000001   -0.000000
    6   -3    3    1    6    0.000516   -0.000000
    6   -3    3    2    6   -0.000622    0.000000
    6   -3    3    3    6   -0.000621    0.000000
    6   -3    3    4    6    0.000229    0.000000
    6   -3    3    5    6    0.000516   -0.000000
    6   -3    3    6    6   -0.000028    0.000000
    6   -3    3    7    6    0.000000    0.000000
    6   -3    3    8    6    0.000230   -0.000000
    6   -3    3    9    6    0.000000    0.000000
    6   -3    3    1    7   -0.000001    0.000000
    6   -3    3    2    7    0.000001   -0.000000
    6   -3    3    3    7    0.000001    0.000000
    6   -3    3    4    7    0.000246    0.000000
    6   -3    3    5    7   -0.000001   -0.000000
    6   -3    3    6    7    0.000000    0.000000
    6   -3    3    7    7   -0.000124   -0.000000
    6   -3    3    8    7   -0.000246   -0.000000
    6   -3    3    9    7   -0.000077    0.000000
    6   -3    3    1    8    0.001299   -0.000000
    6   -3    3    2    8   -0.000472    0.000000
    6   -3    3    3    8   -0.000477    0.000000
    6   -3    3    4    8    0.009566    0.000000
    6   -3    3    5    8    0.001295   -0.000000
    6   -3    3    6    8    0.000229   -0.000000
    6   -3    3    7    8    0.000246   -0.000000
    6   -3    3    8    8   -0.010654    0.000000
    6   -3    3    9    8    0.000245   -0.000000
    6   -3    3    1    9    0.000001    0.000000
    6   -3    3    2    9   -0.000001    0.000000
    6   -3    3    3    9   -0.000002    0.000000
    6   -3    3    4    9    0.000245    0.000000
    6   -3    3    5    9    0.000001   -0.000000
    6   -3    3    6    9    0.000000    0.000000
    6   -3    3    7    9   -0.000077    0.000000
    6   -3    3    8    9   -0.000244    0.000000
    6   -3    3    9    9   -0.000124   -0.000000
    6   -2    4    1    1    0.006024   -0.000000
    6   -2    4    2    1   -0.000828   -0.000000
    6   -2    4    3    1   -0.007120   -0.000000
    6   -2    4    4    1    0.000061    0.000000
    6   -2    4    5    1   -0.000828   -0.000000
    6   -2    4    6    1    0.000000   -0.000000
    6   -2    4    7    1    0.000000   -0.000000
    6   -2    4    8    1    0.000060    0.000000
    6   -2    4    9    1    0.000000    0.000000
    6   -2    4    1    2   -0.000061    0.000000
    6   -2    4    2    2    0.007662    0.000000
    6   -2    4    3    2   -0.000828    0.000000
    6   -2    4    4    2    0.000378    0.000000
    6   -2    4    5    2   -0.008393   -0.000000
    6   -2    4    6    2   -0.001170    0.000000
    6   -2    4    7    2    0.000002   -0.000000
    6   -2    4    8    2    0.000378    0.000000
    6   -2    4    9    2   -0.000002    0.000000
    6   -2    4    1    3   -0.007119   -0.000000
    6   -2    4    2    3   -0.000060   -0.000000
    6   -2    4    3    3    0.006024    0.000000
    6   -2    4    4    3    0.000828    0.000000
    6   -2    4    5    3   -0.000061   -0.000000
    6   -2    4    6    3   -0.000000    0.000000
    6   -2    4    7    3   -0.000000    0.000000
    6   -2    4    8    3    0.000828    0.000000
    6   -2    4    9    3   -0.000000    0.000000
    6   -2    4    1    4    0.000828   -0.000000
    6   -2    4    2    4    0.000378   -0.000000
    6   -2    4    3    4    0.000060   -0.000000
    6   -2    4    4    4    0.007662    0.000000
    6   -2    4    5    4    0.000378   -0.000000
    6   -2    4    6    4   -0.000002    0.000000
    6   -2    4    7    4    0.000003   -0.000000
    6   -2    4    8    4   -0.008394   -0.000000
    6   -2    4    9    4    0.001169    0.000000
    6   -2    4    1    5   -0.000060    0.000000
    6   -2    4    2    5   -0.008394   -0.000000
    6   -2    4    3    5   -0.000828    0.000000
    6   -2    4    4    5    0.000379    0.000000
    6   -2    4    5    5    0.007662   -0.000000
    6   -2    4    6    5    0.001169   -0.000000
    6   -2    4    7    5   -0.000002    0.000000
    6   -2    4    8    5    0.000379   -0.000000
    6   -2    4    9    5    0.000003   -0.000000
    6   -2    4    1    6   -0.000000   -0.000000
    6   -2    4    2    6    0.001169   -0.000000
    6   -2    4    3    6    0.000000   -0.000000
    6   -2    4    4    6    0.000003   -0.000000
    6   -2    4    5    6   -0.001170    0.000000
    6   -2    4    6    6    0.000083   -0.000000
    6   -2    4    7    6    0.000000    0.000000
    6   -2    4    8    6   -0.000002    0.000000
    6   -2    4    9    6   -0.000000   -0.000000
    6   -2    4    1    7   -0.000000    0.000000
    6   -2    4    2    7   -0.000002    0.000000
    6   -2    4    3    7    0.000000   -0.000000
    6   -2    4    4    7   -0.000003    0.000000
    6   -2    4    5    7    0.000002   -0.000000
    6   -2    4    6    7    0.000000    0.000000
    6   -2    4    7    7    0.000277   -0.000000
    6   -2    4    8    7    0.000003   -0.000000
    6   -2    4    9    7   -0.000000   -0.000000
    6   -2    4    1    8    0.000828   -0.000000
    6   -2    4    2    8    0.000379   -0.000000
    6   -2    4    3    8    0.000061   -0.000000
    6   -2    4    4    8   -0.008393    0.000000
    6   -2    4    5    8    0.000378    0.000000
    6   -2    4    6    8    0.000003    0.000000
    6   -2    4    7    8   -0.000003    0.000000
    6   -2    4    8    8    0.007662    0.000000
    6   -2    4    9    8   -0.001170   -0.000000
    6   -2    4    1    9   -0.000000    0.000000
    6   -2    4    2    9    0.000003   -0.000000
    6   -2    4    3    9    0.000000    0.000000
    6   -2    4    4    9   -0.001170    0.000000
    6   -2    4    5    9   -0.000002    0.000000
    6   -2    4    6    9   -0.000000   -0.000000
    6   -2    4    7    9   -0.000000    0.000000
    6   -2    4    8    9    0.001169   -0.000000
    6   -2    4    9    9    0.000083   -0.000000
