 
             +---------------------------------------------------+
             |                                                   |
             |                   WANNIER90                       |
             |                                                   |
             +---------------------------------------------------+
             |                                                   |
             |        Welcome to the Maximally-Localized         |
             |        Generalized Wannier Functions code         |
             |            http://www.wannier.org                 |
             |                                                   |
             |                                                   |
             |  Wannier90 Developer Group:                       |
             |    Giovanni Pizzi    (EPFL)                       |
             |    Valerio Vitale    (Cambridge)                  |
             |    David Vanderbilt  (Rutgers University)         |
             |    Nicola Marzari    (EPFL)                       |
             |    Ivo Souza         (Universidad del Pais Vasco) |
             |    Arash A. Mostofi  (Imperial College London)    |
             |    Jonathan R. Yates (University of Oxford)       |
             |                                                   |
             |  For the full list of Wannier90 3.x authors,      |
             |  please check the code documentation and the      |
             |  README on the GitHub page of the code            |
             |                                                   |
             |                                                   |
             |  Please cite                                      |
             |                                                   |
             |  [ref] "Wannier90 as a community code:            |
             |        new features and applications",            |
             |        G. Pizzi et al., J. Phys. Cond. Matt. 32,  |
             |        165902 (2020).                             |
             |        http://doi.org/10.1088/1361-648X/ab51ff    |
             |                                                   |
             |  in any publications arising from the use of      |
             |  this code. For the method please cite            |
             |                                                   |
             |  [ref] "Maximally Localized Generalised Wannier   |
             |         Functions for Composite Energy Bands"     |
             |         N. Marzari and D. Vanderbilt              |
             |         Phys. Rev. B 56 12847 (1997)              |
             |                                                   |
             |  [ref] "Maximally Localized Wannier Functions     |
             |         for Entangled Energy Bands"               |
             |         I. Souza, N. Marzari and D. Vanderbilt    |
             |         Phys. Rev. B 65 035109 (2001)             |
             |                                                   |
             |                                                   |
             | Copyright (c) 1996-2020                           |
             |        The Wannier90 Developer Group and          |
             |        individual contributors                    |
             |                                                   |
             |      Release: 3.1.0        5th March    2020      |
             |                                                   |
             | This program is free software; you can            |
             | redistribute it and/or modify it under the terms  |
             | of the GNU General Public License as published by |
             | the Free Software Foundation; either version 2 of |
             | the License, or (at your option) any later version|
             |                                                   |
             | This program is distributed in the hope that it   |
             | will be useful, but WITHOUT ANY WARRANTY; without |
             | even the implied warranty of MERCHANTABILITY or   |
             | FITNESS FOR A PARTICULAR PURPOSE. See the GNU     |
             | General Public License for more details.          |
             |                                                   |
             | You should have received a copy of the GNU General|
             | Public License along with this program; if not,   |
             | write to the Free Software Foundation, Inc.,      |
             | 675 Mass Ave, Cambridge, MA 02139, USA.           |
             |                                                   |
             +---------------------------------------------------+
             |    Execution started on 13Mar2024 at 17:28:50     |
             +---------------------------------------------------+
 
 ******************************************************************************
 * -> Using CODATA 2006 constant values                                       *
 *    (http://physics.nist.gov/cuu/Constants/index.html)                      *
 * -> Using Bohr value from CODATA                                            *
 ******************************************************************************
 

 Running in parallel on   4 CPUs

 
                                    ------
                                    SYSTEM
                                    ------
 
                              Lattice Vectors (Ang)
                    a_1     1.434996   1.434996   1.434996
                    a_2    -1.434996   1.434996   1.434996
                    a_3    -1.434996  -1.434996   1.434996
 
                   Unit Cell Volume:      11.81986  (Ang^3)
 
                        Reciprocal-Space Vectors (Ang^-1)
                    b_1     2.189269   0.000000   2.189269
                    b_2    -2.189269   2.189269   0.000000
                    b_3     0.000000  -2.189269   2.189269
  
 *----------------------------------------------------------------------------*
 |   Site       Fractional Coordinate          Cartesian Coordinate (Ang)     |
 +----------------------------------------------------------------------------+
 | Fe   1   0.00000   0.00000   0.00000   |    0.00000   0.00000   0.00000    |
 *----------------------------------------------------------------------------*
                                ------------
                                K-POINT GRID
                                ------------
  
             Grid size =  8 x  8 x  8      Total points =  512
  
  
 *---------------------------------- MAIN ------------------------------------*
 |  Number of Wannier Functions               :                 9             |
 |  Number of Objective Wannier Functions     :                 9             |
 |  Number of input Bloch states              :                14             |
 |  Output verbosity (1=low, 5=high)          :                 1             |
 |  Timing Level (1=low, 5=high)              :                 1             |
 |  Optimisation (0=memory, 3=speed)          :                 3             |
 |  Length Unit                               :               Ang             |
 |  Post-processing setup (write *.nnkp)      :                 F             |
 |  Using Gamma-only branch of algorithms     :                 F             |
 *----------------------------------------------------------------------------*
 *------------------------------- WANNIERISE ---------------------------------*
 |  Total number of iterations                :               400             |
 |  Number of CG steps before reset           :                 5             |
 |  Trial step length for line search         :             2.000             |
 |  Convergence tolerence                     :         0.100E-09             |
 |  Convergence window                        :                -1             |
 |  Iterations between writing output         :                 1             |
 |  Iterations between backing up to disk     :               100             |
 |  Write r^2_nm to file                      :                 F             |
 |  Write xyz WF centres to file              :                 T             |
 |  Write on-site energies <0n|H|0n> to file  :                 F             |
 |  Use guiding centre to control phases      :                 F             |
 |  Use phases for initial projections        :                 F             |
 *----------------------------------------------------------------------------*
 *------------------------------- DISENTANGLE --------------------------------*
 |  Using band disentanglement                :                 T             |
 |  Total number of iterations                :               500             |
 |  Mixing ratio                              :             1.000             |
 |  Convergence tolerence                     :         1.000E-10             |
 |  Convergence window                        :                 3             |
 *----------------------------------------------------------------------------*
 *-------------------------------- PLOTTING ----------------------------------*
 |  Plotting interpolated bandstructure       :                 T             |
 |   Number of K-path sections                :                 9             |
 |   Divisions along first K-path section     :               100             |
 |   Output format                            :           gnuplot             |
 |   Output mode                              :               s-k             |
 *----------------------------------------------------------------------------*
 |   K-space path sections:                                                   |
 |    From: G       0.000  0.000  0.000     To: H       0.500 -0.500 -0.500   |
 |    From: H       0.500 -0.500 -0.500     To: P       0.750  0.250 -0.250   |
 |    From: P       0.750  0.250 -0.250     To: N       0.500  0.000 -0.500   |
 |    From: N       0.500  0.000 -0.500     To: G       0.000  0.000  0.000   |
 |    From: G       0.000  0.000  0.000     To: H       0.500  0.500  0.500   |
 |    From: H       0.500  0.500  0.500     To: N       0.500  0.000  0.000   |
 |    From: N       0.500  0.000  0.000     To: G       0.000  0.000  0.000   |
 |    From: G       0.000  0.000  0.000     To: P       0.750  0.250 -0.250   |
 |    From: P       0.750  0.250 -0.250     To: N       0.500  0.000  0.000   |
 *----------------------------------------------------------------------------*
 |  Plotting Hamiltonian in WF basis          :                 T             |
 *----------------------------------------------------------------------------*
 Time to read parameters        0.075 (sec)

 *---------------------------------- K-MESH ----------------------------------*
 +----------------------------------------------------------------------------+
 |                    Distance to Nearest-Neighbour Shells                    |
 |                    ------------------------------------                    |
 |          Shell             Distance (Ang^-1)          Multiplicity         |
 |          -----             -----------------          ------------         |
 |             1                   0.387012                     12            |
 |             2                   0.547317                      6            |
 |             3                   0.670324                     24            |
 |             4                   0.774023                     12            |
 |             5                   0.865384                     24            |
 |             6                   0.947981                      8            |
 |             7                   1.023937                     48            |
 |             8                   1.094634                      6            |
 |             9                   1.161035                     36            |
 |            10                   1.223838                     24            |
 |            11                   1.283573                     24            |
 |            12                   1.340648                     24            |
 |            13                   1.395391                     72            |
 |            14                   1.498890                     48            |
 |            15                   1.548047                     12            |
 |            16                   1.595690                     48            |
 |            17                   1.641952                     30            |
 |            18                   1.686945                     72            |
 |            19                   1.730769                     24            |
 |            20                   1.773510                     48            |
 |            21                   1.815246                     24            |
 |            22                   1.856043                     48            |
 |            23                   1.895962                      8            |
 |            24                   1.935059                     84            |
 |            25                   1.973380                     24            |
 |            26                   2.010972                     96            |
 |            27                   2.047873                     48            |
 |            28                   2.084122                     24            |
 |            29                   2.154790                     96            |
 |            30                   2.189269                      6            |
 |            31                   2.223213                     96            |
 |            32                   2.256647                     48            |
 |            33                   2.289592                     48            |
 |            34                   2.322070                     36            |
 |            35                   2.354100                    120            |
 |            36                   2.385700                     24            |
 +----------------------------------------------------------------------------+
 | The b-vectors are chosen automatically                                     |
 | The following shells are used:   1                                         |
 +----------------------------------------------------------------------------+
 |                        Shell   # Nearest-Neighbours                        |
 |                        -----   --------------------                        |
 |                          1              12                                 |
 +----------------------------------------------------------------------------+
 | Completeness relation is fully satisfied [Eq. (B1), PRB 56, 12847 (1997)]  |
 +----------------------------------------------------------------------------+
 |                  b_k Vectors (Ang^-1) and Weights (Ang^2)                  |
 |                  ----------------------------------------                  |
 |            No.         b_k(x)      b_k(y)      b_k(z)        w_b           |
 |            ---        --------------------------------     --------        |
 |             1         0.000000   -0.273659    0.273659     1.669136        |
 |             2        -0.273659    0.273659    0.000000     1.669136        |
 |             3        -0.273659    0.000000    0.273659     1.669136        |
 |             4         0.273659    0.000000    0.273659     1.669136        |
 |             5         0.000000    0.273659    0.273659     1.669136        |
 |             6         0.000000    0.273659   -0.273659     1.669136        |
 |             7         0.273659    0.273659    0.000000     1.669136        |
 |             8         0.273659   -0.273659    0.000000     1.669136        |
 |             9         0.273659    0.000000   -0.273659     1.669136        |
 |            10        -0.273659    0.000000   -0.273659     1.669136        |
 |            11        -0.273659   -0.273659    0.000000     1.669136        |
 |            12         0.000000   -0.273659   -0.273659     1.669136        |
 +----------------------------------------------------------------------------+
 |                           b_k Directions (Ang^-1)                          |
 |                           -----------------------                          |
 |            No.           x           y           z                         |
 |            ---        --------------------------------                     |
 |             1         0.000000   -0.273659    0.273659                     |
 |             2        -0.273659    0.273659    0.000000                     |
 |             3        -0.273659    0.000000    0.273659                     |
 |             4         0.273659    0.000000    0.273659                     |
 |             5         0.000000    0.273659    0.273659                     |
 |             6         0.273659    0.273659    0.000000                     |
 +----------------------------------------------------------------------------+
  
 Time to get kmesh              0.398 (sec)
 *============================================================================*
 |                              MEMORY ESTIMATE                               |
 |         Maximum RAM allocated during each phase of the calculation         |
 *============================================================================*
 |                        Disentanglement           29.03 Mb                  |
 |                            Wannierise:           21.16 Mb                  |
 |                          plot_wannier:           21.16 Mb                  |
 *----------------------------------------------------------------------------*
  
 Starting a new Wannier90 calculation ...


 Reading overlaps from iron_dn.mmn    :  Created on 13Mar2024 at 17:28:18

 Reading projections from iron_dn.amn :  Created on 13Mar2024 at 17:26:20

 Time to read overlaps          2.042 (sec)

 *------------------------------- DISENTANGLE --------------------------------*
 +----------------------------------------------------------------------------+
 |                              Energy  Windows                               |
 |                              ---------------                               |
 |                   Outer:    4.43504  to   70.00000  (eV)                   |
 |                   Inner:    4.43504  to   30.00000  (eV)                   |
 +----------------------------------------------------------------------------+
   Number of target bands to extract:    9

                   Unitarised projection of Wannier functions                  
                   ------------------------------------------                  
   A_mn = <psi_m|g_n> --> S = A.A^+ --> U = S^-1/2.A
   In dis_project... done
   Using an inner window (linner = T)
   In dis_proj_froz... done

                   Extraction of optimally-connected subspace                  
                   ------------------------------------------                  
 +---------------------------------------------------------------------+<-- DIS
 |  Iter     Omega_I(i-1)      Omega_I(i)      Delta (frac.)    Time   |<-- DIS
 +---------------------------------------------------------------------+<-- DIS
       1       7.64498629       6.68439504       1.437E-01      0.00    <-- DIS
       2       6.56070144       6.28793227       4.338E-02      0.02    <-- DIS
       3       6.23896400       6.12345546       1.886E-02      0.04    <-- DIS
       4       6.10022725       6.04382458       9.332E-03      0.06    <-- DIS
       5       6.03179957       6.00207424       4.953E-03      0.07    <-- DIS
       6       5.99549530       5.97903747       2.753E-03      0.09    <-- DIS
       7       5.97530326       5.96588580       1.579E-03      0.11    <-- DIS
       8       5.96371311       5.95820367       9.247E-04      0.13    <-- DIS
       9       5.95691840       5.95364728       5.494E-04      0.15    <-- DIS
      10       5.95287852       5.95091717       3.296E-04      0.16    <-- DIS
      11       5.95045396       5.94927022       1.990E-04      0.18    <-- DIS
      12       5.94898974       5.94827217       1.206E-04      0.20    <-- DIS
      13       5.94810177       5.94766551       7.335E-05      0.22    <-- DIS
      14       5.94756175       5.94729597       4.469E-05      0.24    <-- DIS
      15       5.94723269       5.94707054       2.727E-05      0.26    <-- DIS
      16       5.94703191       5.94693289       1.665E-05      0.27    <-- DIS
      17       5.94690929       5.94684878       1.018E-05      0.29    <-- DIS
      18       5.94683435       5.94679735       6.221E-06      0.31    <-- DIS
      19       5.94678853       5.94676590       3.805E-06      0.33    <-- DIS
      20       5.94676050       5.94674666       2.328E-06      0.35    <-- DIS
      21       5.94674335       5.94673488       1.425E-06      0.36    <-- DIS
      22       5.94673286       5.94672767       8.719E-07      0.38    <-- DIS
      23       5.94672644       5.94672326       5.337E-07      0.40    <-- DIS
      24       5.94672251       5.94672056       3.267E-07      0.42    <-- DIS
      25       5.94672010       5.94671891       2.000E-07      0.44    <-- DIS
      26       5.94671863       5.94671790       1.224E-07      0.45    <-- DIS
      27       5.94671772       5.94671728       7.495E-08      0.47    <-- DIS
      28       5.94671717       5.94671690       4.589E-08      0.49    <-- DIS
      29       5.94671683       5.94671667       2.810E-08      0.51    <-- DIS
      30       5.94671663       5.94671652       1.720E-08      0.53    <-- DIS
      31       5.94671650       5.94671644       1.053E-08      0.54    <-- DIS
      32       5.94671642       5.94671638       6.449E-09      0.56    <-- DIS
      33       5.94671637       5.94671635       3.949E-09      0.58    <-- DIS
      34       5.94671635       5.94671633       2.418E-09      0.60    <-- DIS
      35       5.94671633       5.94671632       1.480E-09      0.62    <-- DIS
      36       5.94671632       5.94671631       9.064E-10      0.63    <-- DIS
      37       5.94671631       5.94671631       5.550E-10      0.65    <-- DIS
      38       5.94671631       5.94671630       3.398E-10      0.67    <-- DIS
      39       5.94671630       5.94671630       2.081E-10      0.69    <-- DIS
      40       5.94671630       5.94671630       1.274E-10      0.70    <-- DIS
      41       5.94671630       5.94671630       7.801E-11      0.72    <-- DIS
      42       5.94671630       5.94671630       4.776E-11      0.74    <-- DIS
      43       5.94671630       5.94671630       2.924E-11      0.76    <-- DIS

             <<<      Delta < 1.000E-10  over  3 iterations     >>>
             <<< Disentanglement convergence criteria satisfied >>>

        Final Omega_I     5.94671630 (Ang^2)

 +----------------------------------------------------------------------------+

 Time to disentangle bands      0.897 (sec)

 Writing checkpoint file iron_dn.chk... done

 
 *------------------------------- WANNIERISE ---------------------------------*
 +--------------------------------------------------------------------+<-- CONV
 | Iter  Delta Spread     RMS Gradient      Spread (Ang^2)      Time  |<-- CONV
 +--------------------------------------------------------------------+<-- CONV
 
 ------------------------------------------------------------------------------
 Initial State
  WF centre and spread    1  ( -0.000000,  0.000000, -0.000000 )     2.20183139
  WF centre and spread    2  ( -0.000000, -0.000000,  0.000000 )     2.33550948
  WF centre and spread    3  (  0.000000, -0.000000, -0.000000 )     2.33550959
  WF centre and spread    4  ( -0.000000, -0.000000, -0.000000 )     2.33550956
  WF centre and spread    5  (  0.000000,  0.000000, -0.000000 )     0.51416819
  WF centre and spread    6  ( -0.000000,  0.000000, -0.000000 )     0.50538096
  WF centre and spread    7  (  0.000000, -0.000000,  0.000000 )     0.50538096
  WF centre and spread    8  (  0.000000,  0.000000, -0.000000 )     0.51416819
  WF centre and spread    9  (  0.000000, -0.000000,  0.000000 )     0.50538096
  Sum of centres and spreads (  0.000000, -0.000000,  0.000000 )    11.75283926
 
      0     0.118E+02     0.0000000000       11.7528392609       0.91  <-- CONV
        O_D=      0.0000000 O_OD=      5.8061230 O_TOT=     11.7528393 <-- SPRD
 ------------------------------------------------------------------------------
 Cycle:      1
  WF centre and spread    1  ( -0.000000,  0.000000, -0.000000 )     1.84550011
  WF centre and spread    2  ( -0.000000, -0.000000,  0.000000 )     2.25781813
  WF centre and spread    3  (  0.000000, -0.000000, -0.000000 )     2.25777042
  WF centre and spread    4  ( -0.000000, -0.000000, -0.000000 )     2.25777039
  WF centre and spread    5  (  0.000000,  0.000000, -0.000000 )     0.47723784
  WF centre and spread    6  ( -0.000000,  0.000000,  0.000000 )     0.43662244
  WF centre and spread    7  (  0.000000, -0.000000, -0.000000 )     0.43662244
  WF centre and spread    8  ( -0.000000,  0.000000, -0.000000 )     0.47723851
  WF centre and spread    9  ( -0.000000, -0.000000,  0.000000 )     0.43662159
  Sum of centres and spreads (  0.000000, -0.000000,  0.000000 )    10.88320187
 
      1    -0.870E+00     0.2327403620       10.8832018706       0.94  <-- CONV
        O_D=      0.0000000 O_OD=      4.9364856 O_TOT=     10.8832019 <-- SPRD
 Delta: O_D=  0.7083679E-11 O_OD= -0.8696374E+00 O_TOT= -0.8696374E+00 <-- DLTA
 ------------------------------------------------------------------------------
 Cycle:      2
  WF centre and spread    1  ( -0.000000,  0.000000, -0.000000 )     1.67225694
  WF centre and spread    2  ( -0.000000, -0.000000,  0.000000 )     2.20935534
  WF centre and spread    3  (  0.000000, -0.000000, -0.000000 )     2.20935357
  WF centre and spread    4  ( -0.000000, -0.000000, -0.000000 )     2.20935354
  WF centre and spread    5  (  0.000000,  0.000000, -0.000000 )     0.46072264
  WF centre and spread    6  (  0.000000, -0.000000,  0.000000 )     0.41565073
  WF centre and spread    7  ( -0.000000, -0.000000, -0.000000 )     0.41565073
  WF centre and spread    8  ( -0.000000,  0.000000,  0.000000 )     0.46072106
  WF centre and spread    9  ( -0.000000, -0.000000,  0.000000 )     0.41565051
  Sum of centres and spreads (  0.000000, -0.000000,  0.000000 )    10.46871506
 
      2    -0.414E+00     0.2772389423       10.4687150628       0.97  <-- CONV
        O_D=      0.0000000 O_OD=      4.5219988 O_TOT=     10.4687151 <-- SPRD
 Delta: O_D= -0.5581412E-11 O_OD= -0.4144868E+00 O_TOT= -0.4144868E+00 <-- DLTA
 ------------------------------------------------------------------------------
 Cycle:      3
  WF centre and spread    1  ( -0.000000,  0.000000, -0.000000 )     1.64521286
  WF centre and spread    2  ( -0.000000, -0.000000,  0.000000 )     2.19920961
  WF centre and spread    3  (  0.000000, -0.000000, -0.000000 )     2.19921568
  WF centre and spread    4  ( -0.000000, -0.000000, -0.000000 )     2.19921565
  WF centre and spread    5  (  0.000000,  0.000000, -0.000000 )     0.45371479
  WF centre and spread    6  (  0.000000, -0.000000,  0.000000 )     0.41120414
  WF centre and spread    7  ( -0.000000, -0.000000, -0.000000 )     0.41120414
  WF centre and spread    8  ( -0.000000,  0.000000,  0.000000 )     0.45371408
  WF centre and spread    9  ( -0.000000, -0.000000,  0.000000 )     0.41120453
  Sum of centres and spreads (  0.000000, -0.000000,  0.000000 )    10.38389549
 
      3    -0.848E-01     0.1256168326       10.3838954940       0.99  <-- CONV
        O_D=      0.0000000 O_OD=      4.4371792 O_TOT=     10.3838955 <-- SPRD
 Delta: O_D= -0.1180424E-11 O_OD= -0.8481957E-01 O_TOT= -0.8481957E-01 <-- DLTA
 ------------------------------------------------------------------------------
 Cycle:      4
  WF centre and spread    1  ( -0.000000,  0.000000, -0.000000 )     1.64283673
  WF centre and spread    2  ( -0.000000, -0.000000,  0.000000 )     2.19596151
  WF centre and spread    3  (  0.000000, -0.000000, -0.000000 )     2.19595966
  WF centre and spread    4  ( -0.000000, -0.000000, -0.000000 )     2.19595963
  WF centre and spread    5  (  0.000000,  0.000000, -0.000000 )     0.45075286
  WF centre and spread    6  (  0.000000, -0.000000,  0.000000 )     0.41048759
  WF centre and spread    7  ( -0.000000, -0.000000, -0.000000 )     0.41048760
  WF centre and spread    8  ( -0.000000,  0.000000,  0.000000 )     0.45075292
  WF centre and spread    9  ( -0.000000, -0.000000,  0.000000 )     0.41048797
  Sum of centres and spreads (  0.000000, -0.000000,  0.000000 )    10.36368646
 
      4    -0.202E-01     0.0595834032       10.3636864645       1.02  <-- CONV
        O_D=      0.0000000 O_OD=      4.4169702 O_TOT=     10.3636865 <-- SPRD
 Delta: O_D= -0.3850896E-12 O_OD= -0.2020903E-01 O_TOT= -0.2020903E-01 <-- DLTA
 ------------------------------------------------------------------------------
 Cycle:      5
  WF centre and spread    1  ( -0.000000,  0.000000, -0.000000 )     1.64471028
  WF centre and spread    2  ( -0.000000, -0.000000,  0.000000 )     2.19372813
  WF centre and spread    3  (  0.000000, -0.000000, -0.000000 )     2.19372777
  WF centre and spread    4  ( -0.000000, -0.000000, -0.000000 )     2.19372774
  WF centre and spread    5  (  0.000000,  0.000000, -0.000000 )     0.44834479
  WF centre and spread    6  (  0.000000, -0.000000,  0.000000 )     0.41068971
  WF centre and spread    7  ( -0.000000, -0.000000, -0.000000 )     0.41068971
  WF centre and spread    8  ( -0.000000,  0.000000,  0.000000 )     0.44834514
  WF centre and spread    9  ( -0.000000, -0.000000,  0.000000 )     0.41068995
  Sum of centres and spreads (  0.000000, -0.000000,  0.000000 )    10.35465323
 
      5    -0.903E-02     0.0349439111       10.3546532295       1.04  <-- CONV
        O_D=      0.0000000 O_OD=      4.4079369 O_TOT=     10.3546532 <-- SPRD
 Delta: O_D= -0.1492189E-13 O_OD= -0.9033235E-02 O_TOT= -0.9033235E-02 <-- DLTA
 ------------------------------------------------------------------------------
 Cycle:      6
  WF centre and spread    1  ( -0.000000,  0.000000, -0.000000 )     1.64658847
  WF centre and spread    2  ( -0.000000, -0.000000,  0.000000 )     2.19228830
  WF centre and spread    3  (  0.000000, -0.000000, -0.000000 )     2.19229462
  WF centre and spread    4  ( -0.000000, -0.000000, -0.000000 )     2.19229460
  WF centre and spread    5  ( -0.000000,  0.000000, -0.000000 )     0.44694085
  WF centre and spread    6  (  0.000000, -0.000000,  0.000000 )     0.41104508
  WF centre and spread    7  ( -0.000000, -0.000000, -0.000000 )     0.41104508
  WF centre and spread    8  ( -0.000000,  0.000000,  0.000000 )     0.44694108
  WF centre and spread    9  (  0.000000, -0.000000,  0.000000 )     0.41104522
  Sum of centres and spreads (  0.000000, -0.000000,  0.000000 )    10.35048329
 
      6    -0.417E-02     0.0247701104       10.3504832946       1.07  <-- CONV
        O_D=      0.0000000 O_OD=      4.4037670 O_TOT=     10.3504833 <-- SPRD
 Delta: O_D= -0.8779094E-13 O_OD= -0.4169935E-02 O_TOT= -0.4169935E-02 <-- DLTA
 ------------------------------------------------------------------------------
 Cycle:      7
  WF centre and spread    1  ( -0.000000,  0.000000, -0.000000 )     1.64663677
  WF centre and spread    2  ( -0.000000, -0.000000,  0.000000 )     2.19203450
  WF centre and spread    3  (  0.000000, -0.000000, -0.000000 )     2.19204070
  WF centre and spread    4  ( -0.000000, -0.000000, -0.000000 )     2.19204067
  WF centre and spread    5  ( -0.000000,  0.000000, -0.000000 )     0.44667786
  WF centre and spread    6  (  0.000000, -0.000000,  0.000000 )     0.41108519
  WF centre and spread    7  ( -0.000000, -0.000000, -0.000000 )     0.41108520
  WF centre and spread    8  ( -0.000000,  0.000000,  0.000000 )     0.44667786
  WF centre and spread    9  (  0.000000, -0.000000,  0.000000 )     0.41108534
  Sum of centres and spreads (  0.000000, -0.000000,  0.000000 )    10.34936408
 
      7    -0.112E-02     0.0155765495       10.3493640833       1.09  <-- CONV
        O_D=      0.0000000 O_OD=      4.4026478 O_TOT=     10.3493641 <-- SPRD
 Delta: O_D= -0.5537150E-13 O_OD= -0.1119211E-02 O_TOT= -0.1119211E-02 <-- DLTA
 ------------------------------------------------------------------------------
 Cycle:      8
  WF centre and spread    1  ( -0.000000,  0.000000, -0.000000 )     1.64694401
  WF centre and spread    2  ( -0.000000, -0.000000,  0.000000 )     2.19183059
  WF centre and spread    3  (  0.000000, -0.000000, -0.000000 )     2.19183697
  WF centre and spread    4  ( -0.000000, -0.000000, -0.000000 )     2.19183695
  WF centre and spread    5  ( -0.000000,  0.000000, -0.000000 )     0.44645575
  WF centre and spread    6  (  0.000000, -0.000000,  0.000000 )     0.41117762
  WF centre and spread    7  ( -0.000000, -0.000000, -0.000000 )     0.41117762
  WF centre and spread    8  ( -0.000000,  0.000000,  0.000000 )     0.44645559
  WF centre and spread    9  (  0.000000, -0.000000,  0.000000 )     0.41117776
  Sum of centres and spreads (  0.000000, -0.000000,  0.000000 )    10.34889287
 
      8    -0.471E-03     0.0086189069       10.3488928696       1.12  <-- CONV
        O_D=      0.0000000 O_OD=      4.4021766 O_TOT=     10.3488929 <-- SPRD
 Delta: O_D= -0.1076652E-12 O_OD= -0.4712136E-03 O_TOT= -0.4712136E-03 <-- DLTA
 ------------------------------------------------------------------------------
 Cycle:      9
  WF centre and spread    1  ( -0.000000,  0.000000, -0.000000 )     1.64730302
  WF centre and spread    2  ( -0.000000, -0.000000,  0.000000 )     2.19166535
  WF centre and spread    3  (  0.000000, -0.000000, -0.000000 )     2.19167176
  WF centre and spread    4  ( -0.000000, -0.000000, -0.000000 )     2.19167174
  WF centre and spread    5  ( -0.000000,  0.000000, -0.000000 )     0.44633259
  WF centre and spread    6  (  0.000000, -0.000000,  0.000000 )     0.41124773
  WF centre and spread    7  ( -0.000000, -0.000000, -0.000000 )     0.41124773
  WF centre and spread    8  ( -0.000000,  0.000000,  0.000000 )     0.44633234
  WF centre and spread    9  (  0.000000, -0.000000,  0.000000 )     0.41124786
  Sum of centres and spreads (  0.000000, -0.000000,  0.000000 )    10.34872013
 
      9    -0.173E-03     0.0052128142       10.3487201298       1.15  <-- CONV
        O_D=      0.0000000 O_OD=      4.4020038 O_TOT=     10.3487201 <-- SPRD
 Delta: O_D= -0.5160187E-13 O_OD= -0.1727399E-03 O_TOT= -0.1727399E-03 <-- DLTA
 ------------------------------------------------------------------------------
 Cycle:     10
  WF centre and spread    1  ( -0.000000,  0.000000, -0.000000 )     1.64763593
  WF centre and spread    2  ( -0.000000, -0.000000,  0.000000 )     2.19154190
  WF centre and spread    3  (  0.000000, -0.000000, -0.000000 )     2.19154878
  WF centre and spread    4  ( -0.000000, -0.000000, -0.000000 )     2.19154875
  WF centre and spread    5  ( -0.000000,  0.000000, -0.000000 )     0.44624896
  WF centre and spread    6  (  0.000000, -0.000000,  0.000000 )     0.41129301
  WF centre and spread    7  ( -0.000000, -0.000000, -0.000000 )     0.41129301
  WF centre and spread    8  ( -0.000000,  0.000000,  0.000000 )     0.44624874
  WF centre and spread    9  (  0.000000, -0.000000,  0.000000 )     0.41129313
  Sum of centres and spreads (  0.000000, -0.000000,  0.000000 )    10.34865222
 
     10    -0.679E-04     0.0032632691       10.3486522182       1.17  <-- CONV
        O_D=      0.0000000 O_OD=      4.4019359 O_TOT=     10.3486522 <-- SPRD
 Delta: O_D= -0.3400746E-13 O_OD= -0.6791161E-04 O_TOT= -0.6791161E-04 <-- DLTA
 ------------------------------------------------------------------------------
 Cycle:     11
  WF centre and spread    1  ( -0.000000,  0.000000, -0.000000 )     1.64785959
  WF centre and spread    2  ( -0.000000, -0.000000,  0.000000 )     2.19147719
  WF centre and spread    3  (  0.000000, -0.000000, -0.000000 )     2.19148471
  WF centre and spread    4  ( -0.000000, -0.000000, -0.000000 )     2.19148469
  WF centre and spread    5  ( -0.000000,  0.000000, -0.000000 )     0.44618185
  WF centre and spread    6  (  0.000000, -0.000000,  0.000000 )     0.41131995
  WF centre and spread    7  ( -0.000000, -0.000000, -0.000000 )     0.41131995
  WF centre and spread    8  ( -0.000000,  0.000000,  0.000000 )     0.44618167
  WF centre and spread    9  (  0.000000,  0.000000,  0.000000 )     0.41132007
  Sum of centres and spreads (  0.000000, -0.000000,  0.000000 )    10.34862968
 
     11    -0.225E-04     0.0018789311       10.3486296823       1.20  <-- CONV
        O_D=      0.0000000 O_OD=      4.4019134 O_TOT=     10.3486297 <-- SPRD
 Delta: O_D= -0.9396290E-14 O_OD= -0.2253581E-04 O_TOT= -0.2253581E-04 <-- DLTA
 ------------------------------------------------------------------------------
 Cycle:     12
  WF centre and spread    1  ( -0.000000,  0.000000, -0.000000 )     1.64793981
  WF centre and spread    2  ( -0.000000, -0.000000,  0.000000 )     2.19145370
  WF centre and spread    3  (  0.000000, -0.000000, -0.000000 )     2.19146173
  WF centre and spread    4  ( -0.000000, -0.000000, -0.000000 )     2.19146171
  WF centre and spread    5  ( -0.000000,  0.000000, -0.000000 )     0.44614695
  WF centre and spread    6  (  0.000000, -0.000000,  0.000000 )     0.41133729
  WF centre and spread    7  ( -0.000000, -0.000000, -0.000000 )     0.41133729
  WF centre and spread    8  ( -0.000000,  0.000000,  0.000000 )     0.44614680
  WF centre and spread    9  (  0.000000,  0.000000,  0.000000 )     0.41133742
  Sum of centres and spreads (  0.000000, -0.000000,  0.000000 )    10.34862271
 
     12    -0.697E-05     0.0011292388       10.3486227077       1.22  <-- CONV
        O_D=      0.0000000 O_OD=      4.4019064 O_TOT=     10.3486227 <-- SPRD
 Delta: O_D= -0.2176081E-13 O_OD= -0.6974667E-05 O_TOT= -0.6974667E-05 <-- DLTA
 ------------------------------------------------------------------------------
 Cycle:     13
  WF centre and spread    1  ( -0.000000,  0.000000, -0.000000 )     1.64790283
  WF centre and spread    2  ( -0.000000, -0.000000,  0.000000 )     2.19145578
  WF centre and spread    3  (  0.000000, -0.000000, -0.000000 )     2.19146407
  WF centre and spread    4  ( -0.000000, -0.000000, -0.000000 )     2.19146404
  WF centre and spread    5  ( -0.000000,  0.000000, -0.000000 )     0.44614851
  WF centre and spread    6  (  0.000000, -0.000000,  0.000000 )     0.41134588
  WF centre and spread    7  ( -0.000000, -0.000000, -0.000000 )     0.41134588
  WF centre and spread    8  ( -0.000000,  0.000000,  0.000000 )     0.44614837
  WF centre and spread    9  (  0.000000,  0.000000,  0.000000 )     0.41134601
  Sum of centres and spreads (  0.000000, -0.000000,  0.000000 )    10.34862136
 
     13    -0.135E-05     0.0004796991       10.3486213564       1.25  <-- CONV
        O_D=      0.0000000 O_OD=      4.4019051 O_TOT=     10.3486214 <-- SPRD
 Delta: O_D=  0.1520608E-13 O_OD= -0.1351237E-05 O_TOT= -0.1351237E-05 <-- DLTA
 ------------------------------------------------------------------------------
 Cycle:     14
  WF centre and spread    1  ( -0.000000,  0.000000, -0.000000 )     1.64785756
  WF centre and spread    2  ( -0.000000, -0.000000,  0.000000 )     2.19145900
  WF centre and spread    3  (  0.000000, -0.000000, -0.000000 )     2.19146771
  WF centre and spread    4  ( -0.000000, -0.000000, -0.000000 )     2.19146768
  WF centre and spread    5  ( -0.000000,  0.000000, -0.000000 )     0.44614851
  WF centre and spread    6  (  0.000000, -0.000000,  0.000000 )     0.41135722
  WF centre and spread    7  ( -0.000000, -0.000000, -0.000000 )     0.41135722
  WF centre and spread    8  ( -0.000000,  0.000000,  0.000000 )     0.44614838
  WF centre and spread    9  (  0.000000,  0.000000,  0.000000 )     0.41135736
  Sum of centres and spreads (  0.000000, -0.000000,  0.000000 )    10.34862067
 
     14    -0.689E-06     0.0003195102       10.3486206675       1.28  <-- CONV
        O_D=      0.0000000 O_OD=      4.4019044 O_TOT=     10.3486207 <-- SPRD
 Delta: O_D= -0.1090239E-14 O_OD= -0.6889718E-06 O_TOT= -0.6889718E-06 <-- DLTA
 ------------------------------------------------------------------------------
 Cycle:     15
  WF centre and spread    1  ( -0.000000,  0.000000, -0.000000 )     1.64781766
  WF centre and spread    2  ( -0.000000, -0.000000,  0.000000 )     2.19146078
  WF centre and spread    3  (  0.000000, -0.000000, -0.000000 )     2.19146995
  WF centre and spread    4  ( -0.000000, -0.000000, -0.000000 )     2.19146993
  WF centre and spread    5  ( -0.000000,  0.000000, -0.000000 )     0.44614890
  WF centre and spread    6  (  0.000000, -0.000000,  0.000000 )     0.41136804
  WF centre and spread    7  ( -0.000000,  0.000000, -0.000000 )     0.41136804
  WF centre and spread    8  ( -0.000000,  0.000000,  0.000000 )     0.44614878
  WF centre and spread    9  (  0.000000,  0.000000,  0.000000 )     0.41136819
  Sum of centres and spreads (  0.000000, -0.000000,  0.000000 )    10.34862027
 
     15    -0.400E-06     0.0002318270       10.3486202678       1.31  <-- CONV
        O_D=      0.0000000 O_OD=      4.4019040 O_TOT=     10.3486203 <-- SPRD
 Delta: O_D= -0.4417010E-16 O_OD= -0.3997178E-06 O_TOT= -0.3997178E-06 <-- DLTA
 ------------------------------------------------------------------------------
 Cycle:     16
  WF centre and spread    1  ( -0.000000,  0.000000, -0.000000 )     1.64779202
  WF centre and spread    2  ( -0.000000, -0.000000,  0.000000 )     2.19146100
  WF centre and spread    3  (  0.000000, -0.000000, -0.000000 )     2.19147049
  WF centre and spread    4  ( -0.000000, -0.000000, -0.000000 )     2.19147046
  WF centre and spread    5  ( -0.000000,  0.000000, -0.000000 )     0.44615060
  WF centre and spread    6  (  0.000000, -0.000000,  0.000000 )     0.41137496
  WF centre and spread    7  ( -0.000000,  0.000000, -0.000000 )     0.41137496
  WF centre and spread    8  ( -0.000000,  0.000000,  0.000000 )     0.44615048
  WF centre and spread    9  (  0.000000,  0.000000,  0.000000 )     0.41137511
  Sum of centres and spreads (  0.000000, -0.000000,  0.000000 )    10.34862008
 
     16    -0.189E-06     0.0001676820       10.3486200789       1.33  <-- CONV
        O_D=      0.0000000 O_OD=      4.4019038 O_TOT=     10.3486201 <-- SPRD
 Delta: O_D= -0.2485231E-14 O_OD= -0.1888610E-06 O_TOT= -0.1888610E-06 <-- DLTA
 ------------------------------------------------------------------------------
 Cycle:     17
  WF centre and spread    1  ( -0.000000,  0.000000, -0.000000 )     1.64777821
  WF centre and spread    2  ( -0.000000, -0.000000,  0.000000 )     2.19146105
  WF centre and spread    3  (  0.000000, -0.000000, -0.000000 )     2.19147068
  WF centre and spread    4  ( -0.000000, -0.000000, -0.000000 )     2.19147066
  WF centre and spread    5  ( -0.000000,  0.000000, -0.000000 )     0.44615210
  WF centre and spread    6  (  0.000000, -0.000000,  0.000000 )     0.41137839
  WF centre and spread    7  ( -0.000000,  0.000000, -0.000000 )     0.41137839
  WF centre and spread    8  ( -0.000000,  0.000000,  0.000000 )     0.44615198
  WF centre and spread    9  (  0.000000,  0.000000,  0.000000 )     0.41137855
  Sum of centres and spreads (  0.000000, -0.000000,  0.000000 )    10.34862001
 
     17    -0.674E-07     0.0001085978       10.3486200115       1.36  <-- CONV
        O_D=      0.0000000 O_OD=      4.4019037 O_TOT=     10.3486200 <-- SPRD
 Delta: O_D= -0.4488330E-14 O_OD= -0.6738219E-07 O_TOT= -0.6738220E-07 <-- DLTA
 ------------------------------------------------------------------------------
 Cycle:     18
  WF centre and spread    1  ( -0.000000,  0.000000, -0.000000 )     1.64776987
  WF centre and spread    2  ( -0.000000, -0.000000,  0.000000 )     2.19146050
  WF centre and spread    3  (  0.000000, -0.000000, -0.000000 )     2.19147025
  WF centre and spread    4  ( -0.000000, -0.000000, -0.000000 )     2.19147023
  WF centre and spread    5  ( -0.000000,  0.000000, -0.000000 )     0.44615320
  WF centre and spread    6  (  0.000000, -0.000000,  0.000000 )     0.41138090
  WF centre and spread    7  ( -0.000000,  0.000000, -0.000000 )     0.41138090
  WF centre and spread    8  ( -0.000000,  0.000000,  0.000000 )     0.44615308
  WF centre and spread    9  (  0.000000,  0.000000,  0.000000 )     0.41138106
  Sum of centres and spreads (  0.000000, -0.000000,  0.000000 )    10.34861999
 
     18    -0.250E-07     0.0000681554       10.3486199866       1.39  <-- CONV
        O_D=      0.0000000 O_OD=      4.4019037 O_TOT=     10.3486200 <-- SPRD
 Delta: O_D=  0.5054196E-13 O_OD= -0.2496121E-07 O_TOT= -0.2496115E-07 <-- DLTA
 ------------------------------------------------------------------------------
 Cycle:     19
  WF centre and spread    1  ( -0.000000,  0.000000, -0.000000 )     1.64777138
  WF centre and spread    2  ( -0.000000, -0.000000,  0.000000 )     2.19146031
  WF centre and spread    3  (  0.000000, -0.000000, -0.000000 )     2.19147006
  WF centre and spread    4  ( -0.000000, -0.000000, -0.000000 )     2.19147004
  WF centre and spread    5  ( -0.000000,  0.000000, -0.000000 )     0.44615291
  WF centre and spread    6  (  0.000000, -0.000000,  0.000000 )     0.41138077
  WF centre and spread    7  ( -0.000000,  0.000000, -0.000000 )     0.41138077
  WF centre and spread    8  ( -0.000000,  0.000000,  0.000000 )     0.44615279
  WF centre and spread    9  (  0.000000,  0.000000,  0.000000 )     0.41138093
  Sum of centres and spreads (  0.000000, -0.000000,  0.000000 )    10.34861996
 
     19    -0.250E-07     0.0000838095       10.3486199616       1.41  <-- CONV
        O_D=      0.0000000 O_OD=      4.4019037 O_TOT=     10.3486200 <-- SPRD
 Delta: O_D= -0.6456432E-13 O_OD= -0.2495824E-07 O_TOT= -0.2495831E-07 <-- DLTA
 ------------------------------------------------------------------------------
 Cycle:     20
  WF centre and spread    1  ( -0.000000,  0.000000, -0.000000 )     1.64777658
  WF centre and spread    2  ( -0.000000, -0.000000,  0.000000 )     2.19145968
  WF centre and spread    3  (  0.000000, -0.000000, -0.000000 )     2.19146945
  WF centre and spread    4  ( -0.000000, -0.000000, -0.000000 )     2.19146943
  WF centre and spread    5  ( -0.000000,  0.000000, -0.000000 )     0.44615208
  WF centre and spread    6  (  0.000000, -0.000000,  0.000000 )     0.41138020
  WF centre and spread    7  ( -0.000000,  0.000000,  0.000000 )     0.41138020
  WF centre and spread    8  ( -0.000000,  0.000000,  0.000000 )     0.44615195
  WF centre and spread    9  (  0.000000,  0.000000,  0.000000 )     0.41138037
  Sum of centres and spreads (  0.000000, -0.000000,  0.000000 )    10.34861994
 
     20    -0.189E-07     0.0000368573       10.3486199427       1.44  <-- CONV
        O_D=      0.0000000 O_OD=      4.4019036 O_TOT=     10.3486199 <-- SPRD
 Delta: O_D= -0.3084362E-14 O_OD= -0.1891639E-07 O_TOT= -0.1891640E-07 <-- DLTA
 ------------------------------------------------------------------------------
 Cycle:     21
  WF centre and spread    1  ( -0.000000,  0.000000, -0.000000 )     1.64777660
  WF centre and spread    2  ( -0.000000, -0.000000,  0.000000 )     2.19145968
  WF centre and spread    3  (  0.000000, -0.000000, -0.000000 )     2.19146945
  WF centre and spread    4  ( -0.000000, -0.000000, -0.000000 )     2.19146942
  WF centre and spread    5  ( -0.000000,  0.000000, -0.000000 )     0.44615207
  WF centre and spread    6  (  0.000000, -0.000000,  0.000000 )     0.41138020
  WF centre and spread    7  ( -0.000000,  0.000000,  0.000000 )     0.41138020
  WF centre and spread    8  ( -0.000000,  0.000000,  0.000000 )     0.44615195
  WF centre and spread    9  (  0.000000,  0.000000,  0.000000 )     0.41138037
  Sum of centres and spreads (  0.000000, -0.000000,  0.000000 )    10.34861994
 
     21    -0.755E-10     0.0000507857       10.3486199426       1.45  <-- CONV
        O_D=      0.0000000 O_OD=      4.4019036 O_TOT=     10.3486199 <-- SPRD
 Delta: O_D=  0.5785577E-17 O_OD= -0.7549428E-10 O_TOT= -0.7549339E-10 <-- DLTA
 ------------------------------------------------------------------------------
 Cycle:     22
  WF centre and spread    1  ( -0.000000,  0.000000, -0.000000 )     1.64778556
  WF centre and spread    2  ( -0.000000, -0.000000,  0.000000 )     2.19145862
  WF centre and spread    3  (  0.000000, -0.000000, -0.000000 )     2.19146841
  WF centre and spread    4  ( -0.000000, -0.000000, -0.000000 )     2.19146839
  WF centre and spread    5  ( -0.000000,  0.000000, -0.000000 )     0.44615108
  WF centre and spread    6  (  0.000000, -0.000000,  0.000000 )     0.41137891
  WF centre and spread    7  ( -0.000000,  0.000000,  0.000000 )     0.41137891
  WF centre and spread    8  ( -0.000000,  0.000000,  0.000000 )     0.44615095
  WF centre and spread    9  (  0.000000,  0.000000,  0.000000 )     0.41137908
  Sum of centres and spreads (  0.000000, -0.000000,  0.000000 )    10.34861991
 
     22    -0.375E-07     0.0000507616       10.3486199051       1.48  <-- CONV
        O_D=      0.0000000 O_OD=      4.4019036 O_TOT=     10.3486199 <-- SPRD
 Delta: O_D=  0.6615687E-14 O_OD= -0.3748468E-07 O_TOT= -0.3748468E-07 <-- DLTA
 ------------------------------------------------------------------------------
 Cycle:     23
  WF centre and spread    1  ( -0.000000,  0.000000, -0.000001 )     1.64779983
  WF centre and spread    2  ( -0.000000, -0.000000,  0.000001 )     2.19145690
  WF centre and spread    3  (  0.000001, -0.000000, -0.000000 )     2.19146674
  WF centre and spread    4  ( -0.000000, -0.000000, -0.000000 )     2.19146671
  WF centre and spread    5  ( -0.000000,  0.000000, -0.000000 )     0.44614966
  WF centre and spread    6  (  0.000000, -0.000000,  0.000000 )     0.41137679
  WF centre and spread    7  ( -0.000000,  0.000000,  0.000000 )     0.41137679
  WF centre and spread    8  ( -0.000000,  0.000000, -0.000000 )     0.44614950
  WF centre and spread    9  (  0.000000,  0.000000, -0.000000 )     0.41137696
  Sum of centres and spreads (  0.000000, -0.000000,  0.000000 )    10.34861987
 
     23    -0.311E-07     0.0000749656       10.3486198740       1.51  <-- CONV
        O_D=      0.0000000 O_OD=      4.4019036 O_TOT=     10.3486199 <-- SPRD
 Delta: O_D=  0.1986601E-13 O_OD= -0.3110731E-07 O_TOT= -0.3110729E-07 <-- DLTA
 ------------------------------------------------------------------------------
 Cycle:     24
  WF centre and spread    1  ( -0.000000,  0.000000, -0.000001 )     1.64779798
  WF centre and spread    2  ( -0.000000, -0.000000,  0.000001 )     2.19145712
  WF centre and spread    3  (  0.000001, -0.000000, -0.000000 )     2.19146697
  WF centre and spread    4  ( -0.000000, -0.000000, -0.000000 )     2.19146694
  WF centre and spread    5  ( -0.000000,  0.000000, -0.000000 )     0.44614994
  WF centre and spread    6  (  0.000000, -0.000000,  0.000000 )     0.41137697
  WF centre and spread    7  ( -0.000000,  0.000000,  0.000000 )     0.41137697
  WF centre and spread    8  ( -0.000000,  0.000000, -0.000000 )     0.44614978
  WF centre and spread    9  (  0.000000,  0.000000, -0.000000 )     0.41137715
  Sum of centres and spreads (  0.000000, -0.000000,  0.000000 )    10.34861981
 
     24    -0.616E-07     0.0001312215       10.3486198124       1.54  <-- CONV
        O_D=      0.0000000 O_OD=      4.4019035 O_TOT=     10.3486198 <-- SPRD
 Delta: O_D= -0.9875914E-14 O_OD= -0.6156839E-07 O_TOT= -0.6156840E-07 <-- DLTA
 ------------------------------------------------------------------------------
 Cycle:     25
  WF centre and spread    1  ( -0.000001,  0.000000, -0.000001 )     1.64778730
  WF centre and spread    2  ( -0.000000, -0.000000,  0.000001 )     2.19145882
  WF centre and spread    3  (  0.000001, -0.000000, -0.000000 )     2.19146872
  WF centre and spread    4  ( -0.000000, -0.000000, -0.000000 )     2.19146870
  WF centre and spread    5  ( -0.000000,  0.000000, -0.000000 )     0.44615144
  WF centre and spread    6  (  0.000000, -0.000000,  0.000000 )     0.41137779
  WF centre and spread    7  ( -0.000000,  0.000000,  0.000000 )     0.41137779
  WF centre and spread    8  ( -0.000000,  0.000000, -0.000000 )     0.44615126
  WF centre and spread    9  (  0.000000,  0.000000, -0.000000 )     0.41137796
  Sum of centres and spreads (  0.000000, -0.000000,  0.000000 )    10.34861980
 
     25    -0.135E-07     0.0000435078       10.3486197989       1.56  <-- CONV
        O_D=      0.0000000 O_OD=      4.4019035 O_TOT=     10.3486198 <-- SPRD
 Delta: O_D=  0.1156101E-12 O_OD= -0.1350068E-07 O_TOT= -0.1350057E-07 <-- DLTA
 ------------------------------------------------------------------------------
 Cycle:     26
  WF centre and spread    1  ( -0.000001,  0.000000, -0.000001 )     1.64778639
  WF centre and spread    2  ( -0.000000, -0.000000,  0.000001 )     2.19145890
  WF centre and spread    3  (  0.000001, -0.000000, -0.000000 )     2.19146880
  WF centre and spread    4  ( -0.000000, -0.000000, -0.000000 )     2.19146878
  WF centre and spread    5  ( -0.000000,  0.000000, -0.000000 )     0.44615152
  WF centre and spread    6  (  0.000000, -0.000000,  0.000000 )     0.41137796
  WF centre and spread    7  ( -0.000000,  0.000000,  0.000000 )     0.41137796
  WF centre and spread    8  ( -0.000000,  0.000000, -0.000000 )     0.44615133
  WF centre and spread    9  (  0.000000,  0.000000, -0.000000 )     0.41137813
  Sum of centres and spreads (  0.000000, -0.000000,  0.000000 )    10.34861977
 
     26    -0.288E-07     0.0000911817       10.3486197702       1.59  <-- CONV
        O_D=      0.0000000 O_OD=      4.4019035 O_TOT=     10.3486198 <-- SPRD
 Delta: O_D= -0.8724531E-13 O_OD= -0.2875700E-07 O_TOT= -0.2875709E-07 <-- DLTA
 ------------------------------------------------------------------------------
 Cycle:     27
  WF centre and spread    1  ( -0.000002,  0.000001, -0.000002 )     1.64776450
  WF centre and spread    2  ( -0.000000, -0.000000,  0.000003 )     2.19146073
  WF centre and spread    3  (  0.000002, -0.000000, -0.000000 )     2.19147085
  WF centre and spread    4  ( -0.000000, -0.000001, -0.000000 )     2.19147082
  WF centre and spread    5  ( -0.000000,  0.000000, -0.000000 )     0.44615379
  WF centre and spread    6  (  0.000000, -0.000000,  0.000000 )     0.41138200
  WF centre and spread    7  ( -0.000000,  0.000000,  0.000000 )     0.41138200
  WF centre and spread    8  ( -0.000000,  0.000000, -0.000000 )     0.44615347
  WF centre and spread    9  (  0.000000,  0.000000, -0.000000 )     0.41138217
  Sum of centres and spreads (  0.000000, -0.000000,  0.000000 )    10.34862034
 
     27     0.569E-06     0.0000367111       10.3486203394       1.61  <-- CONV
        O_D=      0.0000000 O_OD=      4.4019040 O_TOT=     10.3486203 <-- SPRD
 Delta: O_D=  0.7275760E-11 O_OD=  0.5692077E-06 O_TOT=  0.5692150E-06 <-- DLTA
 ------------------------------------------------------------------------------
 Cycle:     28
  WF centre and spread    1  ( -0.000002,  0.000001, -0.000002 )     1.64777248
  WF centre and spread    2  ( -0.000000, -0.000000,  0.000003 )     2.19145999
  WF centre and spread    3  (  0.000002, -0.000000, -0.000000 )     2.19147013
  WF centre and spread    4  ( -0.000000, -0.000001, -0.000000 )     2.19147010
  WF centre and spread    5  ( -0.000000,  0.000000, -0.000000 )     0.44615222
  WF centre and spread    6  (  0.000000, -0.000000,  0.000000 )     0.41138090
  WF centre and spread    7  ( -0.000000,  0.000000,  0.000000 )     0.41138090
  WF centre and spread    8  ( -0.000000,  0.000000, -0.000000 )     0.44615189
  WF centre and spread    9  (  0.000000,  0.000000, -0.000000 )     0.41138108
  Sum of centres and spreads (  0.000000, -0.000000,  0.000000 )    10.34861968
 
     28    -0.662E-06     0.0003928624       10.3486196777       1.64  <-- CONV
        O_D=      0.0000000 O_OD=      4.4019034 O_TOT=     10.3486197 <-- SPRD
 Delta: O_D= -0.2563399E-11 O_OD= -0.6616787E-06 O_TOT= -0.6616813E-06 <-- DLTA
 ------------------------------------------------------------------------------
 Cycle:     29
  WF centre and spread    1  ( -0.000002,  0.000001, -0.000002 )     1.64777604
  WF centre and spread    2  ( -0.000000, -0.000000,  0.000003 )     2.19145945
  WF centre and spread    3  (  0.000002, -0.000000, -0.000000 )     2.19146960
  WF centre and spread    4  ( -0.000000, -0.000001, -0.000000 )     2.19146957
  WF centre and spread    5  ( -0.000000,  0.000000, -0.000000 )     0.44615209
  WF centre and spread    6  (  0.000000, -0.000000,  0.000000 )     0.41138031
  WF centre and spread    7  ( -0.000000,  0.000000,  0.000000 )     0.41138031
  WF centre and spread    8  ( -0.000000,  0.000000, -0.000000 )     0.44615175
  WF centre and spread    9  (  0.000000,  0.000000, -0.000000 )     0.41138049
  Sum of centres and spreads (  0.000000, -0.000000,  0.000000 )    10.34861961
 
     29    -0.681E-07     0.0001344395       10.3486196096       1.67  <-- CONV
        O_D=      0.0000000 O_OD=      4.4019033 O_TOT=     10.3486196 <-- SPRD
 Delta: O_D= -0.3525557E-11 O_OD= -0.6808873E-07 O_TOT= -0.6809226E-07 <-- DLTA
 ------------------------------------------------------------------------------
 Cycle:     30
  WF centre and spread    1  ( -0.000002,  0.000001, -0.000003 )     1.64777976
  WF centre and spread    2  ( -0.000000, -0.000000,  0.000003 )     2.19145890
  WF centre and spread    3  (  0.000002, -0.000000, -0.000000 )     2.19146904
  WF centre and spread    4  ( -0.000000, -0.000001, -0.000000 )     2.19146902
  WF centre and spread    5  ( -0.000000,  0.000000, -0.000000 )     0.44615229
  WF centre and spread    6  (  0.000000,  0.000000,  0.000000 )     0.41137949
  WF centre and spread    7  ( -0.000000,  0.000000,  0.000000 )     0.41137949
  WF centre and spread    8  ( -0.000000,  0.000000, -0.000000 )     0.44615193
  WF centre and spread    9  (  0.000000,  0.000000, -0.000000 )     0.41137967
  Sum of centres and spreads (  0.000000, -0.000000,  0.000000 )    10.34861959
 
     30    -0.214E-07     0.0000567721       10.3486195882       1.69  <-- CONV
        O_D=      0.0000000 O_OD=      4.4019033 O_TOT=     10.3486196 <-- SPRD
 Delta: O_D=  0.1877685E-11 O_OD= -0.2144113E-07 O_TOT= -0.2143925E-07 <-- DLTA
 ------------------------------------------------------------------------------
 Cycle:     31
  WF centre and spread    1  ( -0.000002,  0.000001, -0.000003 )     1.64778201
  WF centre and spread    2  ( -0.000000, -0.000000,  0.000004 )     2.19145868
  WF centre and spread    3  (  0.000003, -0.000000, -0.000000 )     2.19146883
  WF centre and spread    4  ( -0.000000, -0.000001, -0.000000 )     2.19146880
  WF centre and spread    5  ( -0.000000,  0.000000, -0.000000 )     0.44615229
  WF centre and spread    6  (  0.000000,  0.000000,  0.000000 )     0.41137896
  WF centre and spread    7  ( -0.000000,  0.000000,  0.000000 )     0.41137896
  WF centre and spread    8  ( -0.000000,  0.000000, -0.000000 )     0.44615190
  WF centre and spread    9  (  0.000000,  0.000000, -0.000000 )     0.41137914
  Sum of centres and spreads (  0.000000, -0.000000,  0.000000 )    10.34861957
 
     31    -0.201E-07     0.0000568743       10.3486195680       1.72  <-- CONV
        O_D=      0.0000000 O_OD=      4.4019033 O_TOT=     10.3486196 <-- SPRD
 Delta: O_D= -0.1142311E-11 O_OD= -0.2014309E-07 O_TOT= -0.2014423E-07 <-- DLTA
 ------------------------------------------------------------------------------
 Cycle:     32
  WF centre and spread    1  ( -0.000003,  0.000002, -0.000004 )     1.64778353
  WF centre and spread    2  ( -0.000000, -0.000000,  0.000005 )     2.19145866
  WF centre and spread    3  (  0.000004, -0.000000, -0.000000 )     2.19146884
  WF centre and spread    4  ( -0.000000, -0.000002, -0.000000 )     2.19146881
  WF centre and spread    5  ( -0.000000,  0.000000, -0.000001 )     0.44615198
  WF centre and spread    6  (  0.000000,  0.000000,  0.000000 )     0.41137866
  WF centre and spread    7  ( -0.000000,  0.000000,  0.000000 )     0.41137866
  WF centre and spread    8  ( -0.000000,  0.000000, -0.000000 )     0.44615155
  WF centre and spread    9  (  0.000000,  0.000000, -0.000000 )     0.41137884
  Sum of centres and spreads (  0.000000, -0.000000,  0.000000 )    10.34861953
 
     32    -0.397E-07     0.0000506063       10.3486195284       1.74  <-- CONV
        O_D=      0.0000000 O_OD=      4.4019032 O_TOT=     10.3486195 <-- SPRD
 Delta: O_D= -0.8706851E-12 O_OD= -0.3967963E-07 O_TOT= -0.3968050E-07 <-- DLTA
 ------------------------------------------------------------------------------
 Cycle:     33
  WF centre and spread    1  ( -0.000003,  0.000002, -0.000004 )     1.64778353
  WF centre and spread    2  ( -0.000000, -0.000000,  0.000005 )     2.19145866
  WF centre and spread    3  (  0.000004, -0.000000, -0.000000 )     2.19146884
  WF centre and spread    4  ( -0.000000, -0.000002, -0.000000 )     2.19146881
  WF centre and spread    5  ( -0.000000,  0.000000, -0.000001 )     0.44615198
  WF centre and spread    6  (  0.000000,  0.000000,  0.000000 )     0.41137866
  WF centre and spread    7  ( -0.000000,  0.000000,  0.000000 )     0.41137866
  WF centre and spread    8  ( -0.000000,  0.000000, -0.000000 )     0.44615155
  WF centre and spread    9  (  0.000000,  0.000000, -0.000000 )     0.41137884
  Sum of centres and spreads (  0.000000, -0.000000,  0.000000 )    10.34861953
 
     33    -0.938E-10     0.0000467841       10.3486195283       1.76  <-- CONV
        O_D=      0.0000000 O_OD=      4.4019032 O_TOT=     10.3486195 <-- SPRD
 Delta: O_D=  0.1283007E-14 O_OD= -0.9376855E-10 O_TOT= -0.9376677E-10 <-- DLTA
 ------------------------------------------------------------------------------
 Cycle:     34
  WF centre and spread    1  ( -0.000003,  0.000002, -0.000005 )     1.64778331
  WF centre and spread    2  ( -0.000000, -0.000000,  0.000006 )     2.19145869
  WF centre and spread    3  (  0.000004, -0.000000, -0.000000 )     2.19146888
  WF centre and spread    4  ( -0.000000, -0.000002, -0.000000 )     2.19146886
  WF centre and spread    5  ( -0.000000,  0.000000, -0.000001 )     0.44615193
  WF centre and spread    6  (  0.000000,  0.000000,  0.000000 )     0.41137873
  WF centre and spread    7  ( -0.000000,  0.000000,  0.000000 )     0.41137873
  WF centre and spread    8  ( -0.000000,  0.000000, -0.000000 )     0.44615149
  WF centre and spread    9  (  0.000000,  0.000000, -0.000000 )     0.41137891
  Sum of centres and spreads (  0.000000, -0.000000,  0.000000 )    10.34861952
 
     34    -0.123E-07     0.0000467069       10.3486195160       1.78  <-- CONV
        O_D=      0.0000000 O_OD=      4.4019032 O_TOT=     10.3486195 <-- SPRD
 Delta: O_D=  0.2668084E-12 O_OD= -0.1228644E-07 O_TOT= -0.1228618E-07 <-- DLTA
 ------------------------------------------------------------------------------
 Cycle:     35
  WF centre and spread    1  ( -0.000003,  0.000002, -0.000005 )     1.64778331
  WF centre and spread    2  ( -0.000000, -0.000000,  0.000006 )     2.19145869
  WF centre and spread    3  (  0.000004, -0.000000, -0.000000 )     2.19146888
  WF centre and spread    4  ( -0.000000, -0.000002, -0.000000 )     2.19146886
  WF centre and spread    5  ( -0.000000,  0.000000, -0.000001 )     0.44615193
  WF centre and spread    6  (  0.000000,  0.000000,  0.000000 )     0.41137873
  WF centre and spread    7  ( -0.000000,  0.000000,  0.000000 )     0.41137873
  WF centre and spread    8  ( -0.000000,  0.000000, -0.000000 )     0.44615149
  WF centre and spread    9  (  0.000000,  0.000000, -0.000000 )     0.41137891
  Sum of centres and spreads (  0.000000, -0.000000,  0.000000 )    10.34861952
 
     35    -0.477E-10     0.0000481765       10.3486195159       1.80  <-- CONV
        O_D=      0.0000000 O_OD=      4.4019032 O_TOT=     10.3486195 <-- SPRD
 Delta: O_D=  0.8655787E-15 O_OD= -0.4768896E-10 O_TOT= -0.4768808E-10 <-- DLTA
 ------------------------------------------------------------------------------
 Cycle:     36
  WF centre and spread    1  ( -0.000004,  0.000002, -0.000006 )     1.64778255
  WF centre and spread    2  ( -0.000000,  0.000000,  0.000007 )     2.19145883
  WF centre and spread    3  (  0.000005, -0.000000, -0.000000 )     2.19146905
  WF centre and spread    4  ( -0.000000, -0.000002, -0.000000 )     2.19146903
  WF centre and spread    5  ( -0.000000,  0.000000, -0.000001 )     0.44615194
  WF centre and spread    6  (  0.000000,  0.000000,  0.000000 )     0.41137882
  WF centre and spread    7  ( -0.000000,  0.000000,  0.000000 )     0.41137882
  WF centre and spread    8  ( -0.000000,  0.000000, -0.000000 )     0.44615147
  WF centre and spread    9  (  0.000000,  0.000000, -0.000000 )     0.41137900
  Sum of centres and spreads (  0.000000, -0.000000,  0.000000 )    10.34861950
 
     36    -0.187E-07     0.0000481471       10.3486194973       1.83  <-- CONV
        O_D=      0.0000000 O_OD=      4.4019032 O_TOT=     10.3486195 <-- SPRD
 Delta: O_D=  0.4558317E-12 O_OD= -0.1866225E-07 O_TOT= -0.1866179E-07 <-- DLTA
 ------------------------------------------------------------------------------
 Cycle:     37
  WF centre and spread    1  ( -0.000006,  0.000003, -0.000008 )     1.64778110
  WF centre and spread    2  ( -0.000000,  0.000000,  0.000009 )     2.19145912
  WF centre and spread    3  (  0.000007,  0.000000, -0.000000 )     2.19146940
  WF centre and spread    4  ( -0.000000, -0.000003, -0.000000 )     2.19146938
  WF centre and spread    5  ( -0.000000,  0.000000, -0.000001 )     0.44615197
  WF centre and spread    6  (  0.000000,  0.000000,  0.000000 )     0.41137896
  WF centre and spread    7  ( -0.000000,  0.000000,  0.000000 )     0.41137896
  WF centre and spread    8  ( -0.000001,  0.000000, -0.000000 )     0.44615144
  WF centre and spread    9  (  0.000000,  0.000000, -0.000000 )     0.41137914
  Sum of centres and spreads (  0.000000, -0.000000,  0.000000 )    10.34861946
 
     37    -0.332E-07     0.0000381505       10.3486194641       1.85  <-- CONV
        O_D=      0.0000000 O_OD=      4.4019032 O_TOT=     10.3486195 <-- SPRD
 Delta: O_D=  0.1662330E-11 O_OD= -0.3317060E-07 O_TOT= -0.3316893E-07 <-- DLTA
 ------------------------------------------------------------------------------
 Cycle:     38
  WF centre and spread    1  ( -0.000010,  0.000005, -0.000014 )     1.64777854
  WF centre and spread    2  ( -0.000000,  0.000000,  0.000017 )     2.19145949
  WF centre and spread    3  (  0.000012,  0.000000, -0.000000 )     2.19146992
  WF centre and spread    4  ( -0.000000, -0.000006, -0.000000 )     2.19146989
  WF centre and spread    5  ( -0.000000,  0.000000, -0.000002 )     0.44615225
  WF centre and spread    6  (  0.000000,  0.000000,  0.000000 )     0.41137920
  WF centre and spread    7  ( -0.000000,  0.000000,  0.000000 )     0.41137920
  WF centre and spread    8  ( -0.000001,  0.000000, -0.000000 )     0.44615149
  WF centre and spread    9  (  0.000000,  0.000000, -0.000000 )     0.41137938
  Sum of centres and spreads (  0.000000, -0.000000,  0.000001 )    10.34861936
 
     38    -0.101E-06     0.0000621495       10.3486193634       1.88  <-- CONV
        O_D=      0.0000000 O_OD=      4.4019031 O_TOT=     10.3486194 <-- SPRD
 Delta: O_D=  0.8665943E-11 O_OD= -0.1007300E-06 O_TOT= -0.1007213E-06 <-- DLTA
 ------------------------------------------------------------------------------
 Cycle:     39
  WF centre and spread    1  ( -0.000045,  0.000022, -0.000063 )     1.64776464
  WF centre and spread    2  ( -0.000000,  0.000000,  0.000075 )     2.19146006
  WF centre and spread    3  (  0.000053,  0.000000, -0.000000 )     2.19147149
  WF centre and spread    4  ( -0.000000, -0.000026, -0.000000 )     2.19147147
  WF centre and spread    5  ( -0.000001,  0.000001, -0.000008 )     0.44615669
  WF centre and spread    6  (  0.000000,  0.000000,  0.000000 )     0.41138040
  WF centre and spread    7  ( -0.000000,  0.000000,  0.000000 )     0.41138040
  WF centre and spread    8  ( -0.000004,  0.000002, -0.000000 )     0.44615317
  WF centre and spread    9  (  0.000000,  0.000000, -0.000000 )     0.41138060
  Sum of centres and spreads (  0.000002, -0.000001,  0.000003 )    10.34861892
 
     39    -0.446E-06     0.0000931448       10.3486189173       1.90  <-- CONV
        O_D=      0.0000000 O_OD=      4.4019026 O_TOT=     10.3486189 <-- SPRD
 Delta: O_D=  0.2201514E-09 O_OD= -0.4462599E-06 O_TOT= -0.4460397E-06 <-- DLTA
 ------------------------------------------------------------------------------
 Cycle:     40
  WF centre and spread    1  ( -0.000047,  0.000023, -0.000066 )     1.64776345
  WF centre and spread    2  ( -0.000000,  0.000000,  0.000079 )     2.19146031
  WF centre and spread    3  (  0.000056,  0.000000, -0.000000 )     2.19147173
  WF centre and spread    4  ( -0.000000, -0.000028, -0.000000 )     2.19147171
  WF centre and spread    5  ( -0.000001,  0.000001, -0.000009 )     0.44615673
  WF centre and spread    6  (  0.000000,  0.000000,  0.000000 )     0.41138041
  WF centre and spread    7  ( -0.000000,  0.000000,  0.000000 )     0.41138041
  WF centre and spread    8  ( -0.000004,  0.000002, -0.000000 )     0.44615319
  WF centre and spread    9  (  0.000000,  0.000000, -0.000000 )     0.41138062
  Sum of centres and spreads (  0.000002, -0.000001,  0.000003 )    10.34861856
 
     40    -0.356E-06     0.0003165244       10.3486185615       1.93  <-- CONV
        O_D=      0.0000000 O_OD=      4.4019023 O_TOT=     10.3486186 <-- SPRD
 Delta: O_D=  0.2377349E-10 O_OD= -0.3558157E-06 O_TOT= -0.3557919E-06 <-- DLTA
 ------------------------------------------------------------------------------
 Cycle:     41
  WF centre and spread    1  ( -0.000054,  0.000027, -0.000076 )     1.64776672
  WF centre and spread    2  ( -0.000000,  0.000000,  0.000090 )     2.19145964
  WF centre and spread    3  (  0.000064,  0.000000, -0.000001 )     2.19147105
  WF centre and spread    4  ( -0.000000, -0.000032, -0.000001 )     2.19147102
  WF centre and spread    5  ( -0.000002,  0.000001, -0.000010 )     0.44615650
  WF centre and spread    6  (  0.000000,  0.000000,  0.000000 )     0.41138017
  WF centre and spread    7  ( -0.000000, -0.000000,  0.000000 )     0.41138017
  WF centre and spread    8  ( -0.000005,  0.000003, -0.000000 )     0.44615288
  WF centre and spread    9  (  0.000000,  0.000000, -0.000000 )     0.41138038
  Sum of centres and spreads (  0.000002, -0.000001,  0.000003 )    10.34861853
 
     41    -0.312E-07     0.0000675172       10.3486185304       1.96  <-- CONV
        O_D=      0.0000000 O_OD=      4.4019022 O_TOT=     10.3486185 <-- SPRD
 Delta: O_D=  0.8374754E-10 O_OD= -0.3123640E-07 O_TOT= -0.3115265E-07 <-- DLTA
 ------------------------------------------------------------------------------
 Cycle:     42
  WF centre and spread    1  ( -0.000062,  0.000031, -0.000088 )     1.64777079
  WF centre and spread    2  ( -0.000000,  0.000000,  0.000104 )     2.19145879
  WF centre and spread    3  (  0.000073,  0.000000, -0.000001 )     2.19147017
  WF centre and spread    4  ( -0.000000, -0.000036, -0.000001 )     2.19147015
  WF centre and spread    5  ( -0.000002,  0.000001, -0.000012 )     0.44615625
  WF centre and spread    6  (  0.000000,  0.000000,  0.000000 )     0.41137986
  WF centre and spread    7  ( -0.000000, -0.000000,  0.000000 )     0.41137986
  WF centre and spread    8  ( -0.000006,  0.000003, -0.000000 )     0.44615256
  WF centre and spread    9  (  0.000000,  0.000000, -0.000000 )     0.41138007
  Sum of centres and spreads (  0.000003, -0.000001,  0.000004 )    10.34861850
 
     42    -0.287E-07     0.0000879035       10.3486185017       1.99  <-- CONV
        O_D=      0.0000000 O_OD=      4.4019022 O_TOT=     10.3486185 <-- SPRD
 Delta: O_D=  0.1086515E-09 O_OD= -0.2879326E-07 O_TOT= -0.2868461E-07 <-- DLTA
 ------------------------------------------------------------------------------
 Cycle:     43
  WF centre and spread    1  ( -0.000070,  0.000034, -0.000098 )     1.64777397
  WF centre and spread    2  ( -0.000000,  0.000000,  0.000116 )     2.19145819
  WF centre and spread    3  (  0.000082,  0.000000, -0.000001 )     2.19146957
  WF centre and spread    4  ( -0.000000, -0.000041, -0.000001 )     2.19146955
  WF centre and spread    5  ( -0.000002,  0.000001, -0.000013 )     0.44615600
  WF centre and spread    6  (  0.000000,  0.000000,  0.000000 )     0.41137958
  WF centre and spread    7  ( -0.000000, -0.000000,  0.000000 )     0.41137958
  WF centre and spread    8  ( -0.000007,  0.000003, -0.000000 )     0.44615225
  WF centre and spread    9  (  0.000000,  0.000000, -0.000000 )     0.41137979
  Sum of centres and spreads (  0.000003, -0.000001,  0.000004 )    10.34861848
 
     43    -0.181E-07     0.0000617862       10.3486184836       2.01  <-- CONV
        O_D=      0.0000000 O_OD=      4.4019022 O_TOT=     10.3486185 <-- SPRD
 Delta: O_D=  0.1079730E-09 O_OD= -0.1822556E-07 O_TOT= -0.1811758E-07 <-- DLTA
 ------------------------------------------------------------------------------
 Cycle:     44
  WF centre and spread    1  ( -0.000086,  0.000043, -0.000121 )     1.64778003
  WF centre and spread    2  ( -0.000001,  0.000000,  0.000144 )     2.19145728
  WF centre and spread    3  (  0.000101,  0.000000, -0.000001 )     2.19146866
  WF centre and spread    4  ( -0.000001, -0.000050, -0.000001 )     2.19146864
  WF centre and spread    5  ( -0.000003,  0.000001, -0.000016 )     0.44615532
  WF centre and spread    6  (  0.000000,  0.000000,  0.000000 )     0.41137895
  WF centre and spread    7  ( -0.000000, -0.000000,  0.000000 )     0.41137895
  WF centre and spread    8  ( -0.000008,  0.000004, -0.000000 )     0.44615145
  WF centre and spread    9  (  0.000000, -0.000000, -0.000000 )     0.41137917
  Sum of centres and spreads (  0.000003, -0.000002,  0.000005 )    10.34861845
 
     44    -0.349E-07     0.0000555777       10.3486184487       2.04  <-- CONV
        O_D=      0.0000000 O_OD=      4.4019021 O_TOT=     10.3486184 <-- SPRD
 Delta: O_D=  0.2960797E-09 O_OD= -0.3521424E-07 O_TOT= -0.3491816E-07 <-- DLTA
 ------------------------------------------------------------------------------
 Cycle:     45
  WF centre and spread    1  ( -0.000154,  0.000077, -0.000218 )     1.64779915
  WF centre and spread    2  ( -0.000001,  0.000000,  0.000258 )     2.19145485
  WF centre and spread    3  (  0.000182,  0.000000, -0.000001 )     2.19146631
  WF centre and spread    4  ( -0.000001, -0.000090, -0.000001 )     2.19146631
  WF centre and spread    5  ( -0.000005,  0.000002, -0.000029 )     0.44615278
  WF centre and spread    6  (  0.000000,  0.000000,  0.000000 )     0.41137675
  WF centre and spread    7  ( -0.000000, -0.000000,  0.000000 )     0.41137675
  WF centre and spread    8  ( -0.000015,  0.000007, -0.000000 )     0.44614843
  WF centre and spread    9  (  0.000000, -0.000000, -0.000000 )     0.41137698
  Sum of centres and spreads (  0.000006, -0.000003,  0.000009 )    10.34861831
 
     45    -0.139E-06     0.0000759086       10.3486183100       2.06  <-- CONV
        O_D=      0.0000000 O_OD=      4.4019020 O_TOT=     10.3486183 <-- SPRD
 Delta: O_D=  0.1900577E-08 O_OD= -0.1405600E-06 O_TOT= -0.1386594E-06 <-- DLTA
 ------------------------------------------------------------------------------
 Cycle:     46
  WF centre and spread    1  ( -0.000164,  0.000081, -0.000231 )     1.64779500
  WF centre and spread    2  ( -0.000001,  0.000001,  0.000273 )     2.19145548
  WF centre and spread    3  (  0.000192,  0.000000, -0.000002 )     2.19146698
  WF centre and spread    4  ( -0.000001, -0.000095, -0.000002 )     2.19146698
  WF centre and spread    5  ( -0.000005,  0.000002, -0.000030 )     0.44615335
  WF centre and spread    6  (  0.000000,  0.000000,  0.000000 )     0.41137708
  WF centre and spread    7  ( -0.000000, -0.000000,  0.000000 )     0.41137708
  WF centre and spread    8  ( -0.000015,  0.000008, -0.000000 )     0.44614898
  WF centre and spread    9  (  0.000000, -0.000000, -0.000000 )     0.41137730
  Sum of centres and spreads (  0.000007, -0.000003,  0.000009 )    10.34861823
 
     46    -0.771E-07     0.0001419482       10.3486182330       2.09  <-- CONV
        O_D=      0.0000000 O_OD=      4.4019019 O_TOT=     10.3486182 <-- SPRD
 Delta: O_D=  0.3309113E-09 O_OD= -0.7738150E-07 O_TOT= -0.7705059E-07 <-- DLTA
 ------------------------------------------------------------------------------
 Cycle:     47
  WF centre and spread    1  ( -0.000204,  0.000101, -0.000287 )     1.64778090
  WF centre and spread    2  ( -0.000001,  0.000001,  0.000340 )     2.19145761
  WF centre and spread    3  (  0.000239,  0.000001, -0.000002 )     2.19146921
  WF centre and spread    4  ( -0.000001, -0.000119, -0.000002 )     2.19146923
  WF centre and spread    5  ( -0.000006,  0.000003, -0.000038 )     0.44615536
  WF centre and spread    6  (  0.000000,  0.000000,  0.000000 )     0.41137825
  WF centre and spread    7  ( -0.000000, -0.000000,  0.000000 )     0.41137825
  WF centre and spread    8  ( -0.000019,  0.000010, -0.000000 )     0.44615087
  WF centre and spread    9  (  0.000000, -0.000000, -0.000000 )     0.41137847
  Sum of centres and spreads (  0.000008, -0.000004,  0.000012 )    10.34861813
 
     47    -0.102E-06     0.0000869193       10.3486181309       2.12  <-- CONV
        O_D=      0.0000000 O_OD=      4.4019018 O_TOT=     10.3486181 <-- SPRD
 Delta: O_D=  0.1695328E-08 O_OD= -0.1037371E-06 O_TOT= -0.1020417E-06 <-- DLTA
 ------------------------------------------------------------------------------
 Cycle:     48
  WF centre and spread    1  ( -0.000204,  0.000101, -0.000287 )     1.64778088
  WF centre and spread    2  ( -0.000001,  0.000001,  0.000340 )     2.19145761
  WF centre and spread    3  (  0.000240,  0.000001, -0.000002 )     2.19146921
  WF centre and spread    4  ( -0.000001, -0.000119, -0.000002 )     2.19146923
  WF centre and spread    5  ( -0.000006,  0.000003, -0.000038 )     0.44615536
  WF centre and spread    6  (  0.000000,  0.000000,  0.000000 )     0.41137825
  WF centre and spread    7  ( -0.000000, -0.000000,  0.000000 )     0.41137825
  WF centre and spread    8  ( -0.000019,  0.000010, -0.000000 )     0.44615087
  WF centre and spread    9  (  0.000000, -0.000000, -0.000000 )     0.41137847
  Sum of centres and spreads (  0.000008, -0.000004,  0.000012 )    10.34861813
 
     48    -0.370E-09     0.0001132956       10.3486181306       2.13  <-- CONV
        O_D=      0.0000000 O_OD=      4.4019018 O_TOT=     10.3486181 <-- SPRD
 Delta: O_D=  0.5110011E-11 O_OD= -0.3748637E-09 O_TOT= -0.3697522E-09 <-- DLTA
 ------------------------------------------------------------------------------
 Cycle:     49
  WF centre and spread    1  ( -0.000379,  0.000188, -0.000534 )     1.64775029
  WF centre and spread    2  ( -0.000002,  0.000001,  0.000633 )     2.19146104
  WF centre and spread    3  (  0.000445,  0.000001, -0.000004 )     2.19147292
  WF centre and spread    4  ( -0.000002, -0.000221, -0.000004 )     2.19147305
  WF centre and spread    5  ( -0.000011,  0.000005, -0.000070 )     0.44616118
  WF centre and spread    6  (  0.000000,  0.000000,  0.000000 )     0.41138094
  WF centre and spread    7  ( -0.000000, -0.000000,  0.000000 )     0.41138094
  WF centre and spread    8  ( -0.000036,  0.000018, -0.000000 )     0.44615622
[...]
 Delta: O_D= -0.2927548E-07 O_OD=  0.2143008E-07 O_TOT= -0.7845403E-08 <-- DLTA
 ------------------------------------------------------------------------------
 Cycle:    386
  WF centre and spread    1  ( -0.685467,  0.000222, -0.000366 )     1.10268576
  WF centre and spread    2  ( -0.000366,  0.000095,  0.685467 )     1.10268548
  WF centre and spread    3  (  0.685467, -0.000222,  0.000366 )     1.10268487
  WF centre and spread    4  ( -0.000222, -0.685467,  0.000095 )     1.10268526
  WF centre and spread    5  (  0.000366, -0.000095, -0.685467 )     1.10268594
  WF centre and spread    6  (  0.000000,  0.000000,  0.000000 )     0.41116642
  WF centre and spread    7  ( -0.000000, -0.000000,  0.000000 )     0.41116638
  WF centre and spread    8  (  0.000222,  0.685467, -0.000095 )     1.10268567
  WF centre and spread    9  (  0.000000, -0.000000, -0.000000 )     0.41116640
  Sum of centres and spreads ( -0.000000,  0.000000, -0.000000 )     7.84961218
 
    386    -0.111E-07     0.0000259131        7.8496121754      11.16  <-- CONV
        O_D=      0.0145242 O_OD=      1.8883717 O_TOT=      7.8496122 <-- SPRD
 Delta: O_D= -0.3779950E-07 O_OD=  0.2672876E-07 O_TOT= -0.1107075E-07 <-- DLTA
 ------------------------------------------------------------------------------
 Cycle:    387
  WF centre and spread    1  ( -0.685467,  0.000214, -0.000354 )     1.10268575
  WF centre and spread    2  ( -0.000354,  0.000092,  0.685467 )     1.10268624
  WF centre and spread    3  (  0.685467, -0.000214,  0.000354 )     1.10268453
  WF centre and spread    4  ( -0.000215, -0.685467,  0.000092 )     1.10268489
  WF centre and spread    5  (  0.000354, -0.000092, -0.685467 )     1.10268557
  WF centre and spread    6  (  0.000000,  0.000000,  0.000000 )     0.41116642
  WF centre and spread    7  ( -0.000000, -0.000000,  0.000000 )     0.41116637
  WF centre and spread    8  (  0.000214,  0.685467, -0.000092 )     1.10268605
  WF centre and spread    9  (  0.000000, -0.000000, -0.000000 )     0.41116633
  Sum of centres and spreads ( -0.000000,  0.000000, -0.000000 )     7.84961215
 
    387    -0.253E-07     0.0000336022        7.8496121501      11.19  <-- CONV
        O_D=      0.0145242 O_OD=      1.8883717 O_TOT=      7.8496122 <-- SPRD
 Delta: O_D= -0.4590058E-07 O_OD=  0.2058706E-07 O_TOT= -0.2531352E-07 <-- DLTA
 ------------------------------------------------------------------------------
 Cycle:    388
  WF centre and spread    1  ( -0.685467,  0.000191, -0.000316 )     1.10268510
  WF centre and spread    2  ( -0.000316,  0.000082,  0.685468 )     1.10268790
  WF centre and spread    3  (  0.685467, -0.000191,  0.000316 )     1.10268573
  WF centre and spread    4  ( -0.000191, -0.685467,  0.000082 )     1.10268487
  WF centre and spread    5  (  0.000316, -0.000082, -0.685467 )     1.10268358
  WF centre and spread    6  (  0.000000,  0.000000,  0.000000 )     0.41116637
  WF centre and spread    7  ( -0.000000,  0.000000,  0.000000 )     0.41116624
  WF centre and spread    8  (  0.000191,  0.685467, -0.000082 )     1.10268613
  WF centre and spread    9  ( -0.000000, -0.000000, -0.000000 )     0.41116613
  Sum of centres and spreads ( -0.000000,  0.000000, -0.000000 )     7.84961206
 
    388    -0.870E-07     0.0000454639        7.8496120630      11.22  <-- CONV
        O_D=      0.0145242 O_OD=      1.8883716 O_TOT=      7.8496121 <-- SPRD
 Delta: O_D= -0.9801386E-08 O_OD= -0.7722641E-07 O_TOT= -0.8702779E-07 <-- DLTA
 ------------------------------------------------------------------------------
 Cycle:    389
  WF centre and spread    1  ( -0.685467,  0.000108, -0.000179 )     1.10268300
  WF centre and spread    2  ( -0.000179,  0.000046,  0.685468 )     1.10269167
  WF centre and spread    3  (  0.685468, -0.000108,  0.000179 )     1.10269015
  WF centre and spread    4  ( -0.000108, -0.685467,  0.000046 )     1.10268589
  WF centre and spread    5  (  0.000178, -0.000046, -0.685466 )     1.10267756
  WF centre and spread    6  (  0.000000,  0.000000,  0.000000 )     0.41116613
  WF centre and spread    7  (  0.000000,  0.000000,  0.000000 )     0.41116580
  WF centre and spread    8  (  0.000108,  0.685467, -0.000047 )     1.10268619
  WF centre and spread    9  ( -0.000000,  0.000000,  0.000000 )     0.41116551
  Sum of centres and spreads (  0.000001, -0.000000,  0.000001 )     7.84961189
 
    389    -0.175E-06     0.0000778530        7.8496118876      11.24  <-- CONV
        O_D=      0.0145244 O_OD=      1.8883712 O_TOT=      7.8496119 <-- SPRD
 Delta: O_D=  0.1958834E-06 O_OD= -0.3713045E-06 O_TOT= -0.1754211E-06 <-- DLTA
 ------------------------------------------------------------------------------
 Cycle:    390
  WF centre and spread    1  ( -0.685467,  0.000108, -0.000179 )     1.10268332
  WF centre and spread    2  ( -0.000179,  0.000046,  0.685468 )     1.10269144
  WF centre and spread    3  (  0.685468, -0.000108,  0.000178 )     1.10268916
  WF centre and spread    4  ( -0.000108, -0.685467,  0.000046 )     1.10268550
  WF centre and spread    5  (  0.000178, -0.000046, -0.685466 )     1.10267843
  WF centre and spread    6  (  0.000000,  0.000000,  0.000000 )     0.41116618
  WF centre and spread    7  (  0.000000,  0.000000,  0.000000 )     0.41116588
  WF centre and spread    8  (  0.000108,  0.685467, -0.000046 )     1.10268629
  WF centre and spread    9  ( -0.000000,  0.000000, -0.000000 )     0.41116560
  Sum of centres and spreads (  0.000001, -0.000000,  0.000001 )     7.84961182
 
    390    -0.701E-07     0.0001493785        7.8496118175      11.27  <-- CONV
        O_D=      0.0145243 O_OD=      1.8883712 O_TOT=      7.8496118 <-- SPRD
 Delta: O_D= -0.8176943E-07 O_OD=  0.1164777E-07 O_TOT= -0.7012166E-07 <-- DLTA
 ------------------------------------------------------------------------------
 Cycle:    391
  WF centre and spread    1  ( -0.685467,  0.000107, -0.000178 )     1.10268407
  WF centre and spread    2  ( -0.000178,  0.000046,  0.685468 )     1.10269057
  WF centre and spread    3  (  0.685468, -0.000107,  0.000177 )     1.10268717
  WF centre and spread    4  ( -0.000107, -0.685467,  0.000046 )     1.10268491
  WF centre and spread    5  (  0.000177, -0.000046, -0.685467 )     1.10268041
  WF centre and spread    6  (  0.000000,  0.000000,  0.000000 )     0.41116626
  WF centre and spread    7  ( -0.000000,  0.000000,  0.000000 )     0.41116605
  WF centre and spread    8  (  0.000107,  0.685467, -0.000046 )     1.10268655
  WF centre and spread    9  (  0.000000,  0.000000, -0.000000 )     0.41116581
  Sum of centres and spreads (  0.000000, -0.000000,  0.000000 )     7.84961179
 
    391    -0.235E-07     0.0000603968        7.8496117940      11.29  <-- CONV
        O_D=      0.0145242 O_OD=      1.8883713 O_TOT=      7.8496118 <-- SPRD
 Delta: O_D= -0.8187583E-07 O_OD=  0.5842328E-07 O_TOT= -0.2345255E-07 <-- DLTA
 ------------------------------------------------------------------------------
 Cycle:    392
  WF centre and spread    1  ( -0.685467,  0.000107, -0.000177 )     1.10268433
  WF centre and spread    2  ( -0.000177,  0.000046,  0.685468 )     1.10268998
  WF centre and spread    3  (  0.685468, -0.000107,  0.000177 )     1.10268664
  WF centre and spread    4  ( -0.000107, -0.685467,  0.000046 )     1.10268486
  WF centre and spread    5  (  0.000177, -0.000046, -0.685467 )     1.10268117
  WF centre and spread    6  (  0.000000,  0.000000,  0.000000 )     0.41116628
  WF centre and spread    7  ( -0.000000,  0.000000,  0.000000 )     0.41116610
  WF centre and spread    8  (  0.000107,  0.685467, -0.000046 )     1.10268653
  WF centre and spread    9  (  0.000000,  0.000000, -0.000000 )     0.41116589
  Sum of centres and spreads (  0.000000,  0.000000,  0.000000 )     7.84961179
 
    392    -0.400E-08     0.0000319487        7.8496117900      11.83  <-- CONV
        O_D=      0.0145242 O_OD=      1.8883713 O_TOT=      7.8496118 <-- SPRD
 Delta: O_D= -0.6404844E-08 O_OD=  0.2407002E-08 O_TOT= -0.3997842E-08 <-- DLTA
 ------------------------------------------------------------------------------
 Cycle:    393
  WF centre and spread    1  ( -0.685467,  0.000107, -0.000177 )     1.10268442
  WF centre and spread    2  ( -0.000177,  0.000046,  0.685468 )     1.10268964
  WF centre and spread    3  (  0.685468, -0.000107,  0.000176 )     1.10268652
  WF centre and spread    4  ( -0.000107, -0.685467,  0.000046 )     1.10268490
  WF centre and spread    5  (  0.000176, -0.000046, -0.685467 )     1.10268151
  WF centre and spread    6  (  0.000000,  0.000000,  0.000000 )     0.41116629
  WF centre and spread    7  ( -0.000000,  0.000000,  0.000000 )     0.41116612
  WF centre and spread    8  (  0.000107,  0.685467, -0.000046 )     1.10268645
  WF centre and spread    9  (  0.000000,  0.000000, -0.000000 )     0.41116593
  Sum of centres and spreads (  0.000000,  0.000000,  0.000000 )     7.84961179
 
    393    -0.797E-09     0.0000128318        7.8496117892      11.85  <-- CONV
        O_D=      0.0145242 O_OD=      1.8883713 O_TOT=      7.8496118 <-- SPRD
 Delta: O_D=  0.4611639E-08 O_OD= -0.5408802E-08 O_TOT= -0.7971632E-09 <-- DLTA
 ------------------------------------------------------------------------------
 Cycle:    394
  WF centre and spread    1  ( -0.685467,  0.000107, -0.000176 )     1.10268452
  WF centre and spread    2  ( -0.000176,  0.000046,  0.685468 )     1.10268925
  WF centre and spread    3  (  0.685468, -0.000107,  0.000176 )     1.10268642
  WF centre and spread    4  ( -0.000107, -0.685467,  0.000046 )     1.10268496
  WF centre and spread    5  (  0.000176, -0.000046, -0.685467 )     1.10268187
  WF centre and spread    6  (  0.000000,  0.000000,  0.000000 )     0.41116629
  WF centre and spread    7  ( -0.000000,  0.000000,  0.000000 )     0.41116615
  WF centre and spread    8  (  0.000107,  0.685467, -0.000046 )     1.10268634
  WF centre and spread    9  (  0.000000,  0.000000, -0.000000 )     0.41116597
  Sum of centres and spreads (  0.000000,  0.000000,  0.000000 )     7.84961179
 
    394    -0.754E-09     0.0000108703        7.8496117885      11.88  <-- CONV
        O_D=      0.0145242 O_OD=      1.8883713 O_TOT=      7.8496118 <-- SPRD
 Delta: O_D=  0.6291673E-08 O_OD= -0.7046101E-08 O_TOT= -0.7544276E-09 <-- DLTA
 ------------------------------------------------------------------------------
 Cycle:    395
  WF centre and spread    1  ( -0.685467,  0.000107, -0.000176 )     1.10268452
  WF centre and spread    2  ( -0.000176,  0.000046,  0.685468 )     1.10268924
  WF centre and spread    3  (  0.685468, -0.000107,  0.000176 )     1.10268642
  WF centre and spread    4  ( -0.000107, -0.685467,  0.000046 )     1.10268497
  WF centre and spread    5  (  0.000176, -0.000046, -0.685467 )     1.10268188
  WF centre and spread    6  (  0.000000,  0.000000,  0.000000 )     0.41116629
  WF centre and spread    7  ( -0.000000,  0.000000,  0.000000 )     0.41116615
  WF centre and spread    8  (  0.000107,  0.685467, -0.000046 )     1.10268634
  WF centre and spread    9  (  0.000000,  0.000000, -0.000000 )     0.41116598
  Sum of centres and spreads (  0.000000,  0.000000,  0.000000 )     7.84961179
 
    395    -0.660E-11     0.0000103595        7.8496117885      11.90  <-- CONV
        O_D=      0.0145242 O_OD=      1.8883713 O_TOT=      7.8496118 <-- SPRD
 Delta: O_D=  0.5578392E-10 O_OD= -0.6238765E-10 O_TOT= -0.6604495E-11 <-- DLTA
 ------------------------------------------------------------------------------
 Cycle:    396
  WF centre and spread    1  ( -0.685467,  0.000107, -0.000176 )     1.10268453
  WF centre and spread    2  ( -0.000176,  0.000046,  0.685468 )     1.10268921
  WF centre and spread    3  (  0.685468, -0.000107,  0.000176 )     1.10268642
  WF centre and spread    4  ( -0.000107, -0.685467,  0.000046 )     1.10268497
  WF centre and spread    5  (  0.000176, -0.000046, -0.685467 )     1.10268191
  WF centre and spread    6  (  0.000000,  0.000000,  0.000000 )     0.41116629
  WF centre and spread    7  ( -0.000000,  0.000000,  0.000000 )     0.41116615
  WF centre and spread    8  (  0.000107,  0.685467, -0.000046 )     1.10268633
  WF centre and spread    9  (  0.000000,  0.000000, -0.000000 )     0.41116598
  Sum of centres and spreads (  0.000000,  0.000000,  0.000000 )     7.84961179
 
    396    -0.762E-10     0.0000103566        7.8496117884      11.92  <-- CONV
        O_D=      0.0145242 O_OD=      1.8883713 O_TOT=      7.8496118 <-- SPRD
 Delta: O_D=  0.5511895E-09 O_OD= -0.6273582E-09 O_TOT= -0.7616840E-10 <-- DLTA
 ------------------------------------------------------------------------------
 Cycle:    397
  WF centre and spread    1  ( -0.685467,  0.000105, -0.000173 )     1.10268500
  WF centre and spread    2  ( -0.000173,  0.000045,  0.685468 )     1.10268711
  WF centre and spread    3  (  0.685467, -0.000105,  0.000173 )     1.10268605
  WF centre and spread    4  ( -0.000105, -0.685467,  0.000045 )     1.10268529
  WF centre and spread    5  (  0.000173, -0.000045, -0.685467 )     1.10268378
  WF centre and spread    6  (  0.000000,  0.000000,  0.000000 )     0.41116633
  WF centre and spread    7  ( -0.000000,  0.000000,  0.000000 )     0.41116627
  WF centre and spread    8  (  0.000105,  0.685467, -0.000045 )     1.10268575
  WF centre and spread    9  (  0.000000,  0.000000, -0.000000 )     0.41116621
  Sum of centres and spreads (  0.000000, -0.000000,  0.000000 )     7.84961179
 
    397    -0.295E-08     0.0000102287        7.8496117855      11.95  <-- CONV
        O_D=      0.0145242 O_OD=      1.8883713 O_TOT=      7.8496118 <-- SPRD
 Delta: O_D=  0.3469941E-07 O_OD= -0.3764956E-07 O_TOT= -0.2950153E-08 <-- DLTA
 ------------------------------------------------------------------------------
 Cycle:    398
  WF centre and spread    1  ( -0.685467,  0.000105, -0.000173 )     1.10268506
  WF centre and spread    2  ( -0.000173,  0.000045,  0.685468 )     1.10268695
  WF centre and spread    3  (  0.685467, -0.000105,  0.000173 )     1.10268594
  WF centre and spread    4  ( -0.000105, -0.685467,  0.000045 )     1.10268529
  WF centre and spread    5  (  0.000173, -0.000045, -0.685467 )     1.10268396
  WF centre and spread    6  (  0.000000,  0.000000,  0.000000 )     0.41116633
  WF centre and spread    7  ( -0.000000,  0.000000,  0.000000 )     0.41116627
  WF centre and spread    8  (  0.000105,  0.685467, -0.000045 )     1.10268576
  WF centre and spread    9  (  0.000000,  0.000000, -0.000000 )     0.41116622
  Sum of centres and spreads (  0.000000, -0.000000,  0.000000 )     7.84961178
 
    398    -0.150E-08     0.0000203274        7.8496117840      11.98  <-- CONV
        O_D=      0.0145242 O_OD=      1.8883712 O_TOT=      7.8496118 <-- SPRD
 Delta: O_D=  0.9044744E-09 O_OD= -0.2407060E-08 O_TOT= -0.1502586E-08 <-- DLTA
 ------------------------------------------------------------------------------
 Cycle:    399
  WF centre and spread    1  ( -0.685467,  0.000105, -0.000173 )     1.10268508
  WF centre and spread    2  ( -0.000173,  0.000045,  0.685467 )     1.10268690
  WF centre and spread    3  (  0.685467, -0.000105,  0.000173 )     1.10268592
  WF centre and spread    4  ( -0.000105, -0.685467,  0.000045 )     1.10268530
  WF centre and spread    5  (  0.000173, -0.000045, -0.685467 )     1.10268401
  WF centre and spread    6  (  0.000000,  0.000000,  0.000000 )     0.41116633
  WF centre and spread    7  ( -0.000000,  0.000000,  0.000000 )     0.41116628
  WF centre and spread    8  (  0.000105,  0.685467, -0.000045 )     1.10268575
  WF centre and spread    9  (  0.000000,  0.000000, -0.000000 )     0.41116622
  Sum of centres and spreads (  0.000000, -0.000000,  0.000000 )     7.84961178
 
    399    -0.208E-09     0.0000103791        7.8496117838      12.32  <-- CONV
        O_D=      0.0145242 O_OD=      1.8883712 O_TOT=      7.8496118 <-- SPRD
 Delta: O_D=  0.1088678E-09 O_OD= -0.3169556E-09 O_TOT= -0.2080878E-09 <-- DLTA
 ------------------------------------------------------------------------------
 Cycle:    400
  WF centre and spread    1  ( -0.685467,  0.000105, -0.000173 )     1.10268508
  WF centre and spread    2  ( -0.000173,  0.000045,  0.685467 )     1.10268690
  WF centre and spread    3  (  0.685467, -0.000105,  0.000173 )     1.10268592
  WF centre and spread    4  ( -0.000105, -0.685467,  0.000045 )     1.10268530
  WF centre and spread    5  (  0.000173, -0.000045, -0.685467 )     1.10268401
  WF centre and spread    6  (  0.000000,  0.000000,  0.000000 )     0.41116633
  WF centre and spread    7  ( -0.000000,  0.000000,  0.000000 )     0.41116628
  WF centre and spread    8  (  0.000105,  0.685467, -0.000045 )     1.10268575
  WF centre and spread    9  (  0.000000,  0.000000, -0.000000 )     0.41116622
  Sum of centres and spreads (  0.000000, -0.000000,  0.000000 )     7.84961178
 
    400    -0.499E-11     0.0000100446        7.8496117837      12.33  <-- CONV
        O_D=      0.0145242 O_OD=      1.8883712 O_TOT=      7.8496118 <-- SPRD
 Delta: O_D=  0.1565961E-11 O_OD= -0.6555867E-11 O_TOT= -0.4989786E-11 <-- DLTA
 ------------------------------------------------------------------------------

 Writing checkpoint file iron_dn.chk... done

 Final State
  WF centre and spread    1  ( -0.685467,  0.000105, -0.000173 )     1.10268508
  WF centre and spread    2  ( -0.000173,  0.000045,  0.685467 )     1.10268690
  WF centre and spread    3  (  0.685467, -0.000105,  0.000173 )     1.10268592
  WF centre and spread    4  ( -0.000105, -0.685467,  0.000045 )     1.10268530
  WF centre and spread    5  (  0.000173, -0.000045, -0.685467 )     1.10268401
  WF centre and spread    6  (  0.000000,  0.000000,  0.000000 )     0.41116633
  WF centre and spread    7  ( -0.000000,  0.000000,  0.000000 )     0.41116628
  WF centre and spread    8  (  0.000105,  0.685467, -0.000045 )     1.10268575
  WF centre and spread    9  (  0.000000,  0.000000, -0.000000 )     0.41116622
  Sum of centres and spreads (  0.000000, -0.000000,  0.000000 )     7.84961178
 
         Spreads (Ang^2)       Omega I      =     5.946716300
        ================       Omega D      =     0.014524236
                               Omega OD     =     1.888371247
    Final Spread (Ang^2)       Omega Total  =     7.849611784
 ------------------------------------------------------------------------------

 Wannier centres written to file iron_dn_centres.xyz
 Time for wannierise           10.427 (sec)

 Writing checkpoint file iron_dn.chk... done

 *---------------------------------------------------------------------------*
 |                               PLOTTING                                    |
 *---------------------------------------------------------------------------*
 
 
 Calculating interpolated band-structure
 
 Time to calculate interpolated band structure       2.218 (sec)
 
 Time for plotting              2.471 (sec)
 Total Execution Time          16.319 (sec)

 *===========================================================================*
 |                             TIMING INFORMATION                            |
 *===========================================================================*
 |    Tag                                                Ncalls      Time (s)|
 |---------------------------------------------------------------------------|
 |kmesh: get                                        :         1         0.398|
 |overlap: allocate                                 :         1         0.001|
 |overlap: read                                     :         1         2.040|
 |dis: main                                         :         1         0.897|
 |wann: main                                        :         1        10.427|
 |plot: main                                        :         1         2.471|
 *---------------------------------------------------------------------------*
 
 All done: wannier90 exiting
