 written on 13Mar2024 at 17:28:48 
           9
         597
    4    3    4    3    2    1    2    3    1    1    1    2    2    1    1
    1    3    2    1    2    3    4    2    1    2    2    1    1    1    2
    2    1    1    1    1    1    2    4    1    1    1    1    1    1    1
    4    2    1    1    1    1    1    2    2    1    1    1    2    2    1
    2    4    3    3    1    1    1    2    2    1    1    1    1    1    2
    3    1    1    1    1    1    1    1    3    1    1    1    1    1    1
    1    1    1    1    1    1    1    1    1    1    3    1    1    1    1
    1    1    1    3    2    1    1    1    1    1    2    2    1    1    1
    3    3    4    2    1    1    1    3    4    1    1    1    1    1    1
    1    4    1    1    1    1    1    1    1    1    1    1    1    1    1
    1    1    1    2    1    1    1    1    1    1    1    2    1    1    1
    1    1    1    1    1    1    1    1    1    1    1    1    1    4    1
    1    1    1    1    1    1    4    3    1    1    1    2    4    2    1
    2    2    1    1    1    1    1    2    1    1    1    1    1    1    1
    1    2    1    1    1    1    1    1    1    2    1    1    1    1    1
    1    1    1    1    1    1    1    1    1    1    1    2    1    1    1
    1    1    1    1    2    1    1    1    1    1    1    1    1    2    1
    1    1    1    1    2    2    1    2    3    2    1    1    1    2    3
    1    1    1    1    1    1    1    3    1    1    1    1    1    1    1
    1    1    1    1    1    1    1    1    1    2    1    1    1    1    1
    1    1    2    1    1    1    1    1    1    1    1    1    1    1    1
    1    1    1    1    3    1    1    1    1    1    1    1    3    2    1
    1    1    2    3    2    1    2    2    1    1    1    1    1    2    1
    1    1    1    1    1    1    1    2    1    1    1    1    1    1    1
    2    1    1    1    1    1    1    1    1    1    1    1    1    1    1
    1    1    2    1    1    1    1    1    1    1    2    1    1    1    1
    1    1    1    1    2    1    1    1    1    1    2    2    1    2    4
    2    1    1    1    3    4    1    1    1    1    1    1    1    4    1
    1    1    1    1    1    1    1    1    1    1    1    1    1    1    1
    2    1    1    1    1    1    1    1    2    1    1    1    1    1    1
    1    1    1    1    1    1    1    1    1    1    4    1    1    1    1
    1    1    1    4    3    1    1    1    2    4    3    3    1    1    1
    2    2    1    1    1    1    1    2    3    1    1    1    1    1    1
    1    3    1    1    1    1    1    1    1    1    1    1    1    1    1
    1    1    1    3    1    1    1    1    1    1    1    3    2    1    1
    1    1    1    2    2    1    1    1    3    3    4    2    1    2    2
    1    1    1    2    2    1    1    1    1    1    2    4    1    1    1
    1    1    1    1    4    2    1    1    1    1    1    2    2    1    1
    1    2    2    1    2    4    3    2    1    2    3    1    1    1    2
    2    1    1    1    3    2    1    2    3    4    3    4
   -6    2   -4    1    1    0.004545   -0.000000
   -6    2   -4    2    1    0.000520    0.000000
   -6    2   -4    3    1    0.004815   -0.000000
   -6    2   -4    4    1   -0.000320   -0.000000
   -6    2   -4    5    1   -0.000520    0.000000
   -6    2   -4    6    1   -0.000000    0.000000
   -6    2   -4    7    1   -0.000000   -0.000000
   -6    2   -4    8    1   -0.000320   -0.000000
   -6    2   -4    9    1    0.000000    0.000000
   -6    2   -4    1    2   -0.000320    0.000000
   -6    2   -4    2    2    0.002856    0.000000
   -6    2   -4    3    2   -0.000520    0.000000
   -6    2   -4    4    2   -0.000288    0.000000
   -6    2   -4    5    2    0.003493   -0.000000
   -6    2   -4    6    2    0.000474    0.000000
   -6    2   -4    7    2   -0.000004   -0.000000
   -6    2   -4    8    2   -0.000288    0.000000
   -6    2   -4    9    2   -0.000006    0.000000
   -6    2   -4    1    3    0.004815   -0.000000
   -6    2   -4    2    3    0.000320    0.000000
   -6    2   -4    3    3    0.004545   -0.000000
   -6    2   -4    4    3   -0.000520    0.000000
   -6    2   -4    5    3   -0.000320   -0.000000
   -6    2   -4    6    3   -0.000000    0.000000
   -6    2   -4    7    3   -0.000000   -0.000000
   -6    2   -4    8    3   -0.000520    0.000000
   -6    2   -4    9    3    0.000000    0.000000
   -6    2   -4    1    4    0.000520    0.000000
   -6    2   -4    2    4   -0.000288   -0.000000
   -6    2   -4    3    4    0.000320   -0.000000
   -6    2   -4    4    4    0.002856   -0.000000
   -6    2   -4    5    4    0.000288   -0.000000
   -6    2   -4    6    4   -0.000005    0.000000
   -6    2   -4    7    4    0.000000    0.000000
   -6    2   -4    8    4   -0.003493   -0.000000
   -6    2   -4    9    4   -0.000473    0.000000
   -6    2   -4    1    5    0.000320    0.000000
   -6    2   -4    2    5    0.003493    0.000000
   -6    2   -4    3    5    0.000520    0.000000
   -6    2   -4    4    5    0.000288   -0.000000
   -6    2   -4    5    5    0.002856    0.000000
   -6    2   -4    6    5    0.000473    0.000000
   -6    2   -4    7    5   -0.000004   -0.000000
   -6    2   -4    8    5    0.000288    0.000000
   -6    2   -4    9    5   -0.000006    0.000000
   -6    2   -4    1    6    0.000000   -0.000000
   -6    2   -4    2    6   -0.000473   -0.000000
   -6    2   -4    3    6    0.000000   -0.000000
   -6    2   -4    4    6    0.000006    0.000000
   -6    2   -4    5    6   -0.000474   -0.000000
   -6    2   -4    6    6    0.000018   -0.000000
   -6    2   -4    7    6   -0.000001    0.000000
   -6    2   -4    8    6   -0.000005   -0.000000
   -6    2   -4    9    6   -0.000000   -0.000000
   -6    2   -4    1    7    0.000000    0.000000
   -6    2   -4    2    7    0.000004    0.000000
   -6    2   -4    3    7    0.000000    0.000000
   -6    2   -4    4    7   -0.000000   -0.000000
   -6    2   -4    5    7    0.000004    0.000000
   -6    2   -4    6    7   -0.000001    0.000000
   -6    2   -4    7    7   -0.000055   -0.000000
   -6    2   -4    8    7    0.000000    0.000000
   -6    2   -4    9    7   -0.000000    0.000000
   -6    2   -4    1    8    0.000520    0.000000
   -6    2   -4    2    8   -0.000288    0.000000
   -6    2   -4    3    8    0.000320   -0.000000
   -6    2   -4    4    8   -0.003493    0.000000
   -6    2   -4    5    8    0.000288    0.000000
   -6    2   -4    6    8    0.000006   -0.000000
   -6    2   -4    7    8   -0.000000   -0.000000
   -6    2   -4    8    8    0.002856   -0.000000
   -6    2   -4    9    8    0.000474   -0.000000
   -6    2   -4    1    9   -0.000000    0.000000
   -6    2   -4    2    9    0.000006   -0.000000
   -6    2   -4    3    9   -0.000000    0.000000
   -6    2   -4    4    9    0.000474   -0.000000
   -6    2   -4    5    9    0.000006   -0.000000
   -6    2   -4    6    9   -0.000000    0.000000
   -6    2   -4    7    9   -0.000000    0.000000
   -6    2   -4    8    9   -0.000473    0.000000
   -6    2   -4    9    9    0.000018   -0.000000
   -6    3   -3    1    1    0.001366    0.000000
   -6    3   -3    2    1   -0.000872    0.000000
   -6    3   -3    3    1    0.003125    0.000000
   -6    3   -3    4    1    0.000051    0.000000
   -6    3   -3    5    1   -0.001201    0.000000
   -6    3   -3    6    1   -0.000623    0.000000
   -6    3   -3    7    1    0.000005   -0.000000
   -6    3   -3    8    1    0.000053   -0.000000
   -6    3   -3    9    1    0.000007   -0.000000
   -6    3   -3    1    2    0.000547    0.000000
   -6    3   -3    2    2    0.001367   -0.000000
   -6    3   -3    3    2   -0.001201   -0.000000
   -6    3   -3    4    2   -0.000832   -0.000000
   -6    3   -3    5    2    0.001709   -0.000000
   -6    3   -3    6    2   -0.000305    0.000000
   -6    3   -3    7    2    0.000002   -0.000000
   -6    3   -3    8    2   -0.000833    0.000000
   -6    3   -3    9    2    0.000004    0.000000
   -6    3   -3    1    3    0.001708    0.000000
   -6    3   -3    2    3   -0.001201   -0.000000
   -6    3   -3    3    3    0.001366    0.000000
   -6    3   -3    4    3   -0.000833    0.000000
   -6    3   -3    5    3    0.000547    0.000000
   -6    3   -3    6    3   -0.000305    0.000000
   -6    3   -3    7    3    0.000002   -0.000000
   -6    3   -3    8    3   -0.000832   -0.000000
   -6    3   -3    9    3    0.000004    0.000000
   -6    3   -3    1    4    0.000832    0.000000
   -6    3   -3    2    4   -0.000052   -0.000000
   -6    3   -3    3    4   -0.000053   -0.000000
   -6    3   -3    4    4   -0.004940    0.000000
   -6    3   -3    5    4    0.000833   -0.000000
   -6    3   -3    6    4    0.000169   -0.000000
   -6    3   -3    7    4   -0.000172    0.000000
   -6    3   -3    8    4    0.004035    0.000000
   -6    3   -3    9    4   -0.000173    0.000000
   -6    3   -3    1    5   -0.001201   -0.000000
   -6    3   -3    2    5    0.003125    0.000000
   -6    3   -3    3    5   -0.000872   -0.000000
   -6    3   -3    4    5    0.000052    0.000000
   -6    3   -3    5    5    0.001367   -0.000000
   -6    3   -3    6    5   -0.000623    0.000000
   -6    3   -3    7    5    0.000005   -0.000000
   -6    3   -3    8    5    0.000052   -0.000000
   -6    3   -3    9    5    0.000007    0.000000
   -6    3   -3    1    6    0.000305   -0.000000
   -6    3   -3    2    6    0.000623   -0.000000
   -6    3   -3    3    6    0.000623   -0.000000
   -6    3   -3    4    6    0.000175    0.000000
   -6    3   -3    5    6    0.000305   -0.000000
   -6    3   -3    6    6   -0.000220    0.000000
   -6    3   -3    7    6    0.000001    0.000000
   -6    3   -3    8    6    0.000169   -0.000000
   -6    3   -3    9    6    0.000001   -0.000000
   -6    3   -3    1    7   -0.000002    0.000000
   -6    3   -3    2    7   -0.000005    0.000000
   -6    3   -3    3    7   -0.000005    0.000000
   -6    3   -3    4    7    0.000169   -0.000000
   -6    3   -3    5    7   -0.000002    0.000000
   -6    3   -3    6    7    0.000001    0.000000
   -6    3   -3    7    7   -0.000137   -0.000000
   -6    3   -3    8    7   -0.000172    0.000000
   -6    3   -3    9    7    0.000040   -0.000000
   -6    3   -3    1    8    0.000833   -0.000000
   -6    3   -3    2    8   -0.000052    0.000000
   -6    3   -3    3    8   -0.000051    0.000000
   -6    3   -3    4    8    0.004035   -0.000000
   -6    3   -3    5    8    0.000832    0.000000
   -6    3   -3    6    8    0.000175    0.000000
   -6    3   -3    7    8    0.000169   -0.000000
   -6    3   -3    8    8   -0.004940    0.000000
   -6    3   -3    9    8    0.000169   -0.000000
   -6    3   -3    1    9   -0.000004   -0.000000
   -6    3   -3    2    9   -0.000007   -0.000000
   -6    3   -3    3    9   -0.000007   -0.000000
   -6    3   -3    4    9    0.000169   -0.000000
   -6    3   -3    5    9   -0.000004   -0.000000
   -6    3   -3    6    9    0.000001   -0.000000
   -6    3   -3    7    9    0.000040   -0.000000
   -6    3   -3    8    9   -0.000173    0.000000
   -6    3   -3    9    9   -0.000137   -0.000000
   -6    4   -2    1    1    0.002856   -0.000000
   -6    4   -2    2    1    0.000520    0.000000
   -6    4   -2    3    1    0.003493   -0.000000
   -6    4   -2    4    1    0.000288    0.000000
   -6    4   -2    5    1    0.000320   -0.000000
   -6    4   -2    6    1    0.000474    0.000000
   -6    4   -2    7    1   -0.000004   -0.000000
   -6    4   -2    8    1    0.000288   -0.000000
   -6    4   -2    9    1   -0.000006    0.000000
   -6    4   -2    1    2   -0.000320    0.000000
   -6    4   -2    2    2    0.004545    0.000000
   -6    4   -2    3    2    0.000320    0.000000
   -6    4   -2    4    2   -0.000520    0.000000
   -6    4   -2    5    2    0.004815   -0.000000
   -6    4   -2    6    2    0.000000    0.000000
   -6    4   -2    7    2   -0.000000   -0.000000
   -6    4   -2    8    2   -0.000520    0.000000
   -6    4   -2    9    2    0.000000    0.000000
   -6    4   -2    1    3    0.003493   -0.000000
   -6    4   -2    2    3   -0.000520   -0.000000
   -6    4   -2    3    3    0.002856   -0.000000
   -6    4   -2    4    3   -0.000288    0.000000
   -6    4   -2    5    3   -0.000320    0.000000
   -6    4   -2    6    3    0.000473    0.000000
   -6    4   -2    7    3   -0.000004   -0.000000
   -6    4   -2    8    3   -0.000288   -0.000000
   -6    4   -2    9    3   -0.000006    0.000000
   -6    4   -2    1    4    0.000288    0.000000
   -6    4   -2    2    4    0.000320   -0.000000
   -6    4   -2    3    4   -0.000288    0.000000
   -6    4   -2    4    4    0.002856   -0.000000
   -6    4   -2    5    4    0.000520    0.000000
   -6    4   -2    6    4   -0.000004   -0.000000
   -6    4   -2    7    4   -0.000474    0.000000
   -6    4   -2    8    4   -0.003493   -0.000000
   -6    4   -2    9    4   -0.000000   -0.000000
   -6    4   -2    1    5   -0.000520    0.000000
   -6    4   -2    2    5    0.004815    0.000000
   -6    4   -2    3    5    0.000520   -0.000000
   -6    4   -2    4    5   -0.000320   -0.000000
   -6    4   -2    5    5    0.004545    0.000000
   -6    4   -2    6    5    0.000000    0.000000
   -6    4   -2    7    5   -0.000000   -0.000000
   -6    4   -2    8    5   -0.000320   -0.000000
   -6    4   -2    9    5    0.000000    0.000000
   -6    4   -2    1    6   -0.000473   -0.000000
   -6    4   -2    2    6   -0.000000   -0.000000
   -6    4   -2    3    6   -0.000474   -0.000000
   -6    4   -2    4    6    0.000004   -0.000000
   -6    4   -2    5    6   -0.000000   -0.000000
   -6    4   -2    6    6    0.000018   -0.000000
   -6    4   -2    7    6    0.000000    0.000000
   -6    4   -2    8    6   -0.000004    0.000000
   -6    4   -2    9    6   -0.000001   -0.000000
   -6    4   -2    1    7    0.000004    0.000000
   -6    4   -2    2    7    0.000000    0.000000
   -6    4   -2    3    7    0.000004    0.000000
   -6    4   -2    4    7    0.000474   -0.000000
   -6    4   -2    5    7    0.000000    0.000000
   -6    4   -2    6    7    0.000000    0.000000
   -6    4   -2    7    7    0.000018    0.000000
   -6    4   -2    8    7   -0.000474    0.000000
   -6    4   -2    9    7    0.000000   -0.000000
   -6    4   -2    1    8    0.000288   -0.000000
   -6    4   -2    2    8    0.000320   -0.000000
   -6    4   -2    3    8   -0.000288   -0.000000
   -6    4   -2    4    8   -0.003493    0.000000
   -6    4   -2    5    8    0.000520    0.000000
   -6    4   -2    6    8    0.000004   -0.000000
   -6    4   -2    7    8    0.000474   -0.000000
   -6    4   -2    8    8    0.002856   -0.000000
   -6    4   -2    9    8    0.000000    0.000000
   -6    4   -2    1    9    0.000006   -0.000000
   -6    4   -2    2    9   -0.000000   -0.000000
   -6    4   -2    3    9    0.000006   -0.000000
   -6    4   -2    4    9    0.000000    0.000000
   -6    4   -2    5    9   -0.000000   -0.000000
   -6    4   -2    6    9   -0.000001   -0.000000
   -6    4   -2    7    9    0.000000   -0.000000
   -6    4   -2    8    9   -0.000000   -0.000000
   -6    4   -2    9    9   -0.000055   -0.000000
   -5    0   -3    1    1    0.001366   -0.000000
   -5    0   -3    2    1    0.000832   -0.000000
   -5    0   -3    3    1    0.001708   -0.000000
   -5    0   -3    4    1    0.000547   -0.000000
   -5    0   -3    5    1   -0.000833   -0.000000
   -5    0   -3    6    1    0.000004    0.000000
   -5    0   -3    7    1   -0.000000   -0.000000
   -5    0   -3    8    1    0.001201    0.000000
   -5    0   -3    9    1    0.000305    0.000000
   -5    0   -3    1    2    0.000051   -0.000000
   -5    0   -3    2    2   -0.004940   -0.000000
   -5    0   -3    3    2   -0.000833   -0.000000
   -5    0   -3    4    2   -0.000833   -0.000000
   -5    0   -3    5    2   -0.004035    0.000000
   -5    0   -3    6    2    0.000174    0.000000
   -5    0   -3    7    2    0.000169   -0.000000
   -5    0   -3    8    2   -0.000052    0.000000
   -5    0   -3    9    2    0.000170    0.000000
   -5    0   -3    1    3    0.003125   -0.000000
   -5    0   -3    2    3   -0.000053   -0.000000
   -5    0   -3    3    3    0.001366   -0.000000
   -5    0   -3    4    3   -0.001201   -0.000000
   -5    0   -3    5    3    0.000051   -0.000000
   -5    0   -3    6    3    0.000007    0.000000
   -5    0   -3    7    3   -0.000000   -0.000000
   -5    0   -3    8    3    0.000872    0.000000
   -5    0   -3    9    3    0.000623    0.000000
   -5    0   -3    1    4   -0.000872    0.000000
   -5    0   -3    2    4   -0.000052   -0.000000
   -5    0   -3    3    4   -0.001201    0.000000
   -5    0   -3    4    4    0.001367    0.000000
   -5    0   -3    5    4    0.000052   -0.000000
   -5    0   -3    6    4    0.000007   -0.000000
   -5    0   -3    7    4   -0.000000    0.000000
   -5    0   -3    8    4   -0.003125   -0.000000
   -5    0   -3    9    4    0.000623   -0.000000
   -5    0   -3    1    5   -0.000053    0.000000
   -5    0   -3    2    5   -0.004035   -0.000000
   -5    0   -3    3    5    0.000832    0.000000
   -5    0   -3    4    5    0.000832   -0.000000
   -5    0   -3    5    5   -0.004940   -0.000000
   -5    0   -3    6    5    0.000170    0.000000
   -5    0   -3    7    5    0.000170   -0.000000
   -5    0   -3    8    5    0.000052    0.000000
   -5    0   -3    9    5   -0.000174    0.000000
   -5    0   -3    1    6   -0.000007   -0.000000
   -5    0   -3    2    6   -0.000170   -0.000000
   -5    0   -3    3    6   -0.000004   -0.000000
   -5    0   -3    4    6   -0.000004    0.000000
   -5    0   -3    5    6   -0.000174   -0.000000
   -5    0   -3    6    6   -0.000137   -0.000000
   -5    0   -3    7    6    0.000040   -0.000000
   -5    0   -3    8    6    0.000007   -0.000000
   -5    0   -3    9    6   -0.000001   -0.000000
   -5    0   -3    1    7    0.000000    0.000000
   -5    0   -3    2    7   -0.000170    0.000000
   -5    0   -3    3    7    0.000000    0.000000
   -5    0   -3    4    7    0.000000   -0.000000
   -5    0   -3    5    7   -0.000169    0.000000
   -5    0   -3    6    7    0.000040   -0.000000
   -5    0   -3    7    7   -0.000138   -0.000000
   -5    0   -3    8    7   -0.000000    0.000000
   -5    0   -3    9    7   -0.000000   -0.000000
   -5    0   -3    1    8    0.001201   -0.000000
   -5    0   -3    2    8   -0.000832    0.000000
   -5    0   -3    3    8   -0.000547   -0.000000
   -5    0   -3    4    8   -0.001708   -0.000000
   -5    0   -3    5    8    0.000833    0.000000
   -5    0   -3    6    8   -0.000004    0.000000
   -5    0   -3    7    8    0.000000   -0.000000
   -5    0   -3    8    8    0.001367    0.000000
   -5    0   -3    9    8   -0.000305    0.000000
   -5    0   -3    1    9   -0.000623   -0.000000
   -5    0   -3    2    9    0.000174   -0.000000
   -5    0   -3    3    9   -0.000305   -0.000000
   -5    0   -3    4    9   -0.000305    0.000000
   -5    0   -3    5    9   -0.000170   -0.000000
   -5    0   -3    6    9   -0.000001    0.000000
   -5    0   -3    7    9   -0.000000    0.000000
   -5    0   -3    8    9    0.000623   -0.000000
   -5    0   -3    9    9   -0.000220    0.000000
   -5    1   -4    1    1   -0.003822   -0.000000
   -5    1   -4    2    1   -0.001914    0.000000
   -5    1   -4    3    1   -0.005397   -0.000000
   -5    1   -4    4    1   -0.000561   -0.000000
   -5    1   -4    5    1    0.001915   -0.000000
   -5    1   -4    6    1    0.000000    0.000000
   -5    1   -4    7    1    0.000000   -0.000000
   -5    1   -4    8    1   -0.000561    0.000000
   -5    1   -4    9    1    0.000000    0.000000
   -5    1   -4    1    2    0.002667    0.000000
   -5    1   -4    2    2    0.000210   -0.000000
   -5    1   -4    3    2    0.001915    0.000000
   -5    1   -4    4    2   -0.000603    0.000000
   -5    1   -4    5    2    0.001693   -0.000000
   -5    1   -4    6    2    0.000030    0.000000
   -5    1   -4    7    2   -0.000000   -0.000000
   -5    1   -4    8    2   -0.000604   -0.000000
   -5    1   -4    9    2   -0.000000    0.000000
   -5    1   -4    1    3   -0.000731   -0.000000
   -5    1   -4    2    3   -0.002666    0.000000
   -5    1   -4    3    3   -0.003822   -0.000000
   -5    1   -4    4    3   -0.001443   -0.000000
   -5    1   -4    5    3    0.002667   -0.000000
   -5    1   -4    6    3    0.000000    0.000000
   -5    1   -4    7    3    0.000000   -0.000000
   -5    1   -4    8    3   -0.001442    0.000000
   -5    1   -4    9    3    0.000000    0.000000
   -5    1   -4    1    4    0.001442    0.000000
   -5    1   -4    2    4   -0.000603   -0.000000
   -5    1   -4    3    4    0.000561    0.000000
   -5    1   -4    4    4   -0.004576    0.000000
   -5    1   -4    5    4    0.000604   -0.000000
   -5    1   -4    6    4   -0.000001   -0.000000
   -5    1   -4    7    4    0.000000    0.000000
   -5    1   -4    8    4    0.003308    0.000000
   -5    1   -4    9    4   -0.000059    0.000000
   -5    1   -4    1    5   -0.002666   -0.000000
   -5    1   -4    2    5    0.001694    0.000000
   -5    1   -4    3    5   -0.001914    0.000000
   -5    1   -4    4    5    0.000604   -0.000000
   -5    1   -4    5    5    0.000210   -0.000000
   -5    1   -4    6    5    0.000030    0.000000
   -5    1   -4    7    5   -0.000000   -0.000000
   -5    1   -4    8    5    0.000603    0.000000
   -5    1   -4    9    5   -0.000000    0.000000
   -5    1   -4    1    6   -0.000000   -0.000000
   -5    1   -4    2    6   -0.000030   -0.000000
   -5    1   -4    3    6   -0.000000   -0.000000
   -5    1   -4    4    6    0.000001    0.000000
   -5    1   -4    5    6   -0.000030   -0.000000
   -5    1   -4    6    6   -0.000178   -0.000000
   -5    1   -4    7    6    0.000002    0.000000
   -5    1   -4    8    6   -0.000001   -0.000000
   -5    1   -4    9    6    0.000001   -0.000000
   -5    1   -4    1    7   -0.000000    0.000000
   -5    1   -4    2    7    0.000000    0.000000
   -5    1   -4    3    7   -0.000000    0.000000
   -5    1   -4    4    7   -0.000000   -0.000000
   -5    1   -4    5    7    0.000000    0.000000
   -5    1   -4    6    7    0.000002    0.000000
   -5    1   -4    7    7    0.000041   -0.000000
   -5    1   -4    8    7    0.000000    0.000000
   -5    1   -4    9    7    0.000000    0.000000
   -5    1   -4    1    8    0.001443   -0.000000
   -5    1   -4    2    8   -0.000604    0.000000
   -5    1   -4    3    8    0.000561   -0.000000
   -5    1   -4    4    8    0.003308   -0.000000
   -5    1   -4    5    8    0.000603   -0.000000
   -5    1   -4    6    8    0.000001    0.000000
   -5    1   -4    7    8   -0.000000   -0.000000
   -5    1   -4    8    8   -0.004576    0.000000
   -5    1   -4    9    8    0.000059   -0.000000
   -5    1   -4    1    9   -0.000000   -0.000000
   -5    1   -4    2    9    0.000000   -0.000000
   -5    1   -4    3    9   -0.000000   -0.000000
   -5    1   -4    4    9    0.000059    0.000000
   -5    1   -4    5    9    0.000000   -0.000000
   -5    1   -4    6    9    0.000001   -0.000000
   -5    1   -4    7    9    0.000000    0.000000
   -5    1   -4    8    9   -0.000059   -0.000000
   -5    1   -4    9    9   -0.000103    0.000000
   -5    1   -3    1    1    0.000908   -0.000000
   -5    1   -3    2    1   -0.003047   -0.000000
   -5    1   -3    3    1   -0.001919   -0.000000
   -5    1   -3    4    1   -0.003636    0.000000
   -5    1   -3    5    1   -0.000049   -0.000000
   -5    1   -3    6    1    0.000217    0.000000
   -5    1   -3    7    1    0.000426    0.000000
   -5    1   -3    8    1    0.001265    0.000000
   -5    1   -3    9    1    0.000194   -0.000000
   -5    1   -3    1    2   -0.000108   -0.000000
   -5    1   -3    2    2   -0.002397   -0.000000
   -5    1   -3    3    2   -0.000049    0.000000
   -5    1   -3    4    2    0.000807    0.000000
   -5    1   -3    5    2   -0.002427   -0.000000
   -5    1   -3    6    2    0.000620    0.000000
   -5    1   -3    7    2   -0.000162   -0.000000
   -5    1   -3    8    2   -0.000979    0.000000
   -5    1   -3    9    2    0.000201    0.000000
   -5    1   -3    1    3    0.001826    0.000000
   -5    1   -3    2    3   -0.000772    0.000000
   -5    1   -3    3    3    0.000908   -0.000000
   -5    1   -3    4    3   -0.001464   -0.000000
   -5    1   -3    5    3   -0.000108    0.000000
   -5    1   -3    6    3    0.000412    0.000000
   -5    1   -3    7    3    0.000177   -0.000000
   -5    1   -3    8    3    0.000480    0.000000
   -5    1   -3    9    3    0.000312   -0.000000
   -5    1   -3    1    4   -0.000480    0.000000
   -5    1   -3    2    4   -0.000458   -0.000000
   -5    1   -3    3    4   -0.001265    0.000000
   -5    1   -3    4    4    0.002292    0.000000
   -5    1   -3    5    4    0.000979   -0.000000
   -5    1   -3    6    4    0.000124   -0.000000
   -5    1   -3    7    4   -0.000021    0.000000
   -5    1   -3    8    4   -0.003295   -0.000000
   -5    1   -3    9    4    0.000509   -0.000000
   -5    1   -3    1    5   -0.000772    0.000000
   -5    1   -3    2    5   -0.005780   -0.000000
   -5    1   -3    3    5   -0.003047    0.000000
   -5    1   -3    4    5   -0.002473   -0.000000
   -5    1   -3    5    5   -0.002397   -0.000000
   -5    1   -3    6    5    0.000407    0.000000
   -5    1   -3    7    5   -0.000239   -0.000000
   -5    1   -3    8    5    0.000458    0.000000
   -5    1   -3    9    5    0.000278    0.000000
   -5    1   -3    1    6   -0.000412    0.000000
   -5    1   -3    2    6   -0.000407   -0.000000
   -5    1   -3    3    6   -0.000217    0.000000
   -5    1   -3    4    6    0.000044    0.000000
   -5    1   -3    5    6   -0.000620   -0.000000
   -5    1   -3    6    6    0.000136   -0.000000
   -5    1   -3    7    6    0.000109    0.000000
   -5    1   -3    8    6    0.000124   -0.000000
   -5    1   -3    9    6    0.000013    0.000000
   -5    1   -3    1    7   -0.000177   -0.000000
   -5    1   -3    2    7    0.000239    0.000000
   -5    1   -3    3    7   -0.000426    0.000000
   -5    1   -3    4    7    0.000090   -0.000000
   -5    1   -3    5    7    0.000162    0.000000
   -5    1   -3    6    7    0.000109   -0.000000
   -5    1   -3    7    7    0.000061   -0.000000
   -5    1   -3    8    7   -0.000021    0.000000
   -5    1   -3    9    7    0.000043   -0.000000
   -5    1   -3    1    8    0.001464   -0.000000
   -5    1   -3    2    8    0.002473    0.000000
   -5    1   -3    3    8    0.003636    0.000000
   -5    1   -3    4    8   -0.000558    0.000000
   -5    1   -3    5    8   -0.000807    0.000000
   -5    1   -3    6    8    0.000044    0.000000
   -5    1   -3    7    8    0.000090   -0.000000
   -5    1   -3    8    8    0.002292   -0.000000
   -5    1   -3    9    8   -0.000582    0.000000
   -5    1   -3    1    9   -0.000312   -0.000000
   -5    1   -3    2    9   -0.000278   -0.000000
   -5    1   -3    3    9   -0.000194   -0.000000
   -5    1   -3    4    9   -0.000582    0.000000
   -5    1   -3    5    9   -0.000201   -0.000000
   -5    1   -3    6    9    0.000013   -0.000000
   -5    1   -3    7    9    0.000043   -0.000000
   -5    1   -3    8    9    0.000509    0.000000
   -5    1   -3    9    9   -0.000127   -0.000000
   -5    1   -2    1    1   -0.001347    0.000000
   -5    1   -2    2    1   -0.000358   -0.000000
   -5    1   -2    3    1   -0.002641    0.000000
   -5    1   -2    4    1    0.001026   -0.000000
   -5    1   -2    5    1    0.000948   -0.000000
   -5    1   -2    6    1    0.000430    0.000000
   -5    1   -2    7    1    0.000401   -0.000000
   -5    1   -2    8    1   -0.002090    0.000000
   -5    1   -2    9    1   -0.000047    0.000000
   -5    1   -2    1    2    0.001026    0.000000
   -5    1   -2    2    2    0.000096   -0.000000
   -5    1   -2    3    2    0.000948   -0.000000
   -5    1   -2    4    2   -0.000550   -0.000000
   -5    1   -2    5    2    0.001910   -0.000000
   -5    1   -2    6    2   -0.000005    0.000000
   -5    1   -2    7    2    0.000005   -0.000000
   -5    1   -2    8    2    0.000463    0.000000
   -5    1   -2    9    2   -0.001019    0.000000
   -5    1   -2    1    3   -0.002641    0.000000
   -5    1   -2    2    3    0.002090    0.000000
   -5    1   -2    3    3   -0.001347    0.000000
   -5    1   -2    4    3    0.000948   -0.000000
   -5    1   -2    5    3    0.001026   -0.000000
   -5    1   -2    6    3    0.000034    0.000000
   -5    1   -2    7    3   -0.000404   -0.000000
   -5    1   -2    8    3    0.000358   -0.000000
   -5    1   -2    9    3   -0.000428   -0.000000
   -5    1   -2    1    4   -0.000358   -0.000000
   -5    1   -2    2    4    0.002094   -0.000000
   -5    1   -2    3    4    0.002090   -0.000000
   -5    1   -2    4    4    0.000096    0.000000
   -5    1   -2    5    4   -0.000463   -0.000000
   -5    1   -2    6    4    0.000683   -0.000000
   -5    1   -2    7    4   -0.000541    0.000000
   -5    1   -2    8    4    0.004405    0.000000
   -5    1   -2    9    4   -0.000364    0.000000
   -5    1   -2    1    5    0.002090    0.000000
   -5    1   -2    2    5   -0.004405   -0.000000
   -5    1   -2    3    5   -0.000358    0.000000
   -5    1   -2    4    5   -0.000464   -0.000000
   -5    1   -2    5    5    0.000096   -0.000000
   -5    1   -2    6    5    0.000352    0.000000
   -5    1   -2    7    5    0.000533   -0.000000
   -5    1   -2    8    5   -0.002094   -0.000000
   -5    1   -2    9    5   -0.000695    0.000000
   -5    1   -2    1    6   -0.000034   -0.000000
   -5    1   -2    2    6   -0.000352   -0.000000
   -5    1   -2    3    6   -0.000430   -0.000000
   -5    1   -2    4    6   -0.001018    0.000000
   -5    1   -2    5    6    0.000005   -0.000000
   -5    1   -2    6    6    0.000143    0.000000
   -5    1   -2    7    6    0.000185    0.000000
   -5    1   -2    8    6    0.000683    0.000000
   -5    1   -2    9    6    0.000027    0.000000
   -5    1   -2    1    7    0.000404    0.000000
   -5    1   -2    2    7   -0.000534    0.000000
   -5    1   -2    3    7   -0.000401    0.000000
   -5    1   -2    4    7    0.000012   -0.000000
   -5    1   -2    5    7   -0.000005    0.000000
   -5    1   -2    6    7    0.000185   -0.000000
   -5    1   -2    7    7    0.000116   -0.000000
   -5    1   -2    8    7   -0.000541    0.000000
   -5    1   -2    9    7    0.000181    0.000000
   -5    1   -2    1    8   -0.000948   -0.000000
   -5    1   -2    2    8    0.000464    0.000000
   -5    1   -2    3    8   -0.001026    0.000000
   -5    1   -2    4    8   -0.001910    0.000000
   -5    1   -2    5    8    0.000550    0.000000
   -5    1   -2    6    8   -0.001018    0.000000
   -5    1   -2    7    8    0.000012   -0.000000
   -5    1   -2    8    8    0.000096    0.000000
   -5    1   -2    9    8    0.000019   -0.000000
   -5    1   -2    1    9    0.000428   -0.000000
   -5    1   -2    2    9    0.000695   -0.000000
   -5    1   -2    3    9    0.000047   -0.000000
   -5    1   -2    4    9    0.000019   -0.000000
   -5    1   -2    5    9    0.001019   -0.000000
   -5    1   -2    6    9    0.000027    0.000000
   -5    1   -2    7    9    0.000181   -0.000000
   -5    1   -2    8    9   -0.000364    0.000000
   -5    1   -2    9    9    0.000139    0.000000
   -5    2   -5    1    1    0.001367   -0.000000
   -5    2   -5    2    1    0.000832    0.000000
   -5    2   -5    3    1    0.001708   -0.000000
   -5    2   -5    4    1    0.001201    0.000000
   -5    2   -5    5    1   -0.000833    0.000000
   -5    2   -5    6    1   -0.000004    0.000000
   -5    2   -5    7    1    0.000000   -0.000000
   -5    2   -5    8    1    0.000547   -0.000000
   -5    2   -5    9    1   -0.000305   -0.000000
   -5    2   -5    1    2    0.000051    0.000000
   -5    2   -5    2    2   -0.004940    0.000000
   -5    2   -5    3    2   -0.000833    0.000000
   -5    2   -5    4    2   -0.000052   -0.000000
   -5    2   -5    5    2   -0.004035    0.000000
   -5    2   -5    6    2    0.000167    0.000000
   -5    2   -5    7    2   -0.000172   -0.000000
   -5    2   -5    8    2   -0.000832    0.000000
   -5    2   -5    9    2   -0.000174    0.000000
   -5    2   -5    1    3    0.003125   -0.000000
   -5    2   -5    2    3   -0.000053    0.000000
   -5    2   -5    3    3    0.001367   -0.000000
   -5    2   -5    4    3    0.000872    0.000000
   -5    2   -5    5    3    0.000051   -0.000000
   -5    2   -5    6    3   -0.000007    0.000000
   -5    2   -5    7    3    0.000000   -0.000000
   -5    2   -5    8    3   -0.001201   -0.000000
   -5    2   -5    9    3   -0.000623    0.000000
   -5    2   -5    1    4    0.001201    0.000000
   -5    2   -5    2    4   -0.000833   -0.000000
   -5    2   -5    3    4   -0.000547    0.000000
   -5    2   -5    4    4    0.001366   -0.000000
   -5    2   -5    5    4    0.000832   -0.000000
   -5    2   -5    6    4    0.000004   -0.000000
   -5    2   -5    7    4   -0.000000    0.000000
   -5    2   -5    8    4   -0.001708   -0.000000
   -5    2   -5    9    4    0.000305    0.000000
   -5    2   -5    1    5   -0.000053    0.000000
   -5    2   -5    2    5   -0.004035   -0.000000
   -5    2   -5    3    5    0.000832    0.000000
   -5    2   -5    4    5    0.000052    0.000000
   -5    2   -5    5    5   -0.004940    0.000000
   -5    2   -5    6    5    0.000171    0.000000
   -5    2   -5    7    5   -0.000172   -0.000000
   -5    2   -5    8    5    0.000833    0.000000
   -5    2   -5    9    5    0.000170    0.000000
   -5    2   -5    1    6    0.000007   -0.000000
   -5    2   -5    2    6   -0.000171   -0.000000
   -5    2   -5    3    6    0.000004   -0.000000
   -5    2   -5    4    6   -0.000007    0.000000
   -5    2   -5    5    6   -0.000167   -0.000000
   -5    2   -5    6    6   -0.000138   -0.000000
   -5    2   -5    7    6   -0.000040    0.000000
   -5    2   -5    8    6    0.000004   -0.000000
   -5    2   -5    9    6   -0.000001   -0.000000
   -5    2   -5    1    7   -0.000000    0.000000
   -5    2   -5    2    7    0.000172    0.000000
   -5    2   -5    3    7   -0.000000    0.000000
   -5    2   -5    4    7    0.000000   -0.000000
   -5    2   -5    5    7    0.000172    0.000000
   -5    2   -5    6    7   -0.000040    0.000000
   -5    2   -5    7    7   -0.000137    0.000000
   -5    2   -5    8    7   -0.000000    0.000000
   -5    2   -5    9    7    0.000001    0.000000
   -5    2   -5    1    8   -0.000872    0.000000
   -5    2   -5    2    8   -0.000052    0.000000
   -5    2   -5    3    8   -0.001201    0.000000
   -5    2   -5    4    8   -0.003125    0.000000
   -5    2   -5    5    8    0.000052    0.000000
   -5    2   -5    6    8   -0.000007    0.000000
   -5    2   -5    7    8    0.000000   -0.000000
   -5    2   -5    8    8    0.001366    0.000000
   -5    2   -5    9    8   -0.000623    0.000000
   -5    2   -5    1    9    0.000623   -0.000000
   -5    2   -5    2    9   -0.000170   -0.000000
   -5    2   -5    3    9    0.000305   -0.000000
   -5    2   -5    4    9   -0.000623    0.000000
   -5    2   -5    5    9    0.000174   -0.000000
   -5    2   -5    6    9   -0.000001   -0.000000
   -5    2   -5    7    9    0.000001    0.000000
   -5    2   -5    8    9    0.000305    0.000000
   -5    2   -5    9    9   -0.000220    0.000000
   -5    2   -4    1    1    0.000909   -0.000000
   -5    2   -4    2    1   -0.003047    0.000000
   -5    2   -4    3    1   -0.001918   -0.000000
   -5    2   -4    4    1    0.001265   -0.000000
   -5    2   -4    5    1   -0.000050   -0.000000
   -5    2   -4    6    1    0.000206    0.000000
   -5    2   -4    7    1   -0.000429   -0.000000
   -5    2   -4    8    1   -0.003636    0.000000
   -5    2   -4    9    1   -0.000199    0.000000
   -5    2   -4    1    2   -0.000108   -0.000000
   -5    2   -4    2    2   -0.002398    0.000000
   -5    2   -4    3    2   -0.000050    0.000000
   -5    2   -4    4    2   -0.000979    0.000000
   -5    2   -4    5    2   -0.002426    0.000000
   -5    2   -4    6    2    0.000618    0.000000
   -5    2   -4    7    2    0.000152   -0.000000
   -5    2   -4    8    2    0.000807    0.000000
   -5    2   -4    9    2   -0.000215    0.000000
   -5    2   -4    1    3    0.001826   -0.000000
   -5    2   -4    2    3   -0.000772    0.000000
   -5    2   -4    3    3    0.000909   -0.000000
   -5    2   -4    4    3    0.000481    0.000000
   -5    2   -4    5    3   -0.000108    0.000000
   -5    2   -4    6    3    0.000401    0.000000
   -5    2   -4    7    3   -0.000183    0.000000
   -5    2   -4    8    3   -0.001464   -0.000000
   -5    2   -4    9    3   -0.000322    0.000000
   -5    2   -4    1    4    0.001464   -0.000000
   -5    2   -4    2    4    0.002473    0.000000
   -5    2   -4    3    4    0.003636    0.000000
   -5    2   -4    4    4    0.002292   -0.000000
   -5    2   -4    5    4   -0.000807   -0.000000
   -5    2   -4    6    4    0.000057   -0.000000
   -5    2   -4    7    4   -0.000091    0.000000
   -5    2   -4    8    4   -0.000557    0.000000
   -5    2   -4    9    4    0.000581    0.000000
   -5    2   -4    1    5   -0.000772    0.000000
   -5    2   -4    2    5   -0.005780   -0.000000
   -5    2   -4    3    5   -0.003047    0.000000
   -5    2   -4    4    5    0.000458   -0.000000
   -5    2   -4    5    5   -0.002398    0.000000
   -5    2   -4    6    5    0.000404    0.000000
   -5    2   -4    7    5    0.000233   -0.000000
   -5    2   -4    8    5   -0.002473   -0.000000
   -5    2   -4    9    5   -0.000288    0.000000
   -5    2   -4    1    6   -0.000401    0.000000
   -5    2   -4    2    6   -0.000404   -0.000000
   -5    2   -4    3    6   -0.000206    0.000000
   -5    2   -4    4    6    0.000112    0.000000
   -5    2   -4    5    6   -0.000618   -0.000000
   -5    2   -4    6    6    0.000132   -0.000000
   -5    2   -4    7    6   -0.000109    0.000000
   -5    2   -4    8    6    0.000057   -0.000000
   -5    2   -4    9    6   -0.000018   -0.000000
   -5    2   -4    1    7    0.000183    0.000000
   -5    2   -4    2    7   -0.000233    0.000000
   -5    2   -4    3    7    0.000429   -0.000000
   -5    2   -4    4    7    0.000019   -0.000000
   -5    2   -4    5    7   -0.000152    0.000000
   -5    2   -4    6    7   -0.000109    0.000000
   -5    2   -4    7    7    0.000064    0.000000
   -5    2   -4    8    7   -0.000091    0.000000
   -5    2   -4    9    7    0.000045    0.000000
   -5    2   -4    1    8   -0.000481   -0.000000
   -5    2   -4    2    8   -0.000458    0.000000
   -5    2   -4    3    8   -0.001265   -0.000000
   -5    2   -4    4    8   -0.003295    0.000000
   -5    2   -4    5    8    0.000979    0.000000
   -5    2   -4    6    8    0.000112   -0.000000
   -5    2   -4    7    8    0.000019   -0.000000
   -5    2   -4    8    8    0.002292   -0.000000
   -5    2   -4    9    8   -0.000512    0.000000
   -5    2   -4    1    9    0.000322    0.000000
   -5    2   -4    2    9    0.000288   -0.000000
   -5    2   -4    3    9    0.000199    0.000000
   -5    2   -4    4    9   -0.000512    0.000000
   -5    2   -4    5    9    0.000215   -0.000000
   -5    2   -4    6    9   -0.000018   -0.000000
   -5    2   -4    7    9    0.000045    0.000000
   -5    2   -4    8    9    0.000581   -0.000000
   -5    2   -4    9    9   -0.000126    0.000000
   -5    2   -3    1    1    0.002601    0.000000
   -5    2   -3    2    1    0.001642    0.000000
   -5    2   -3    3    1    0.005150    0.000000
   -5    2   -3    4    1    0.000514   -0.000000
   -5    2   -3    5    1   -0.000105   -0.000000
   -5    2   -3    6    1    0.000281    0.000000
   -5    2   -3    7    1   -0.000002   -0.000000
   -5    2   -3    8    1    0.000514    0.000000
   -5    2   -3    9    1   -0.000003    0.000000
   -5    2   -3    1    2    0.000672    0.000000
   -5    2   -3    2    2    0.003162    0.000000
   -5    2   -3    3    2   -0.000104    0.000000
   -5    2   -3    4    2    0.000059   -0.000000
   -5    2   -3    5    2    0.003496   -0.000000
   -5    2   -3    6    2   -0.000191    0.000000
   -5    2   -3    7    2    0.000001   -0.000000
   -5    2   -3    8    2    0.000059    0.000000
   -5    2   -3    9    2    0.000002    0.000000
   -5    2   -3    1    3   -0.000144    0.000000
   -5    2   -3    2    3    0.002508    0.000000
   -5    2   -3    3    3    0.002600    0.000000
   -5    2   -3    4    3    0.001001   -0.000000
   -5    2   -3    5    3    0.000672    0.000000
   -5    2   -3    6    3    0.000012    0.000000
   -5    2   -3    7    3   -0.000000   -0.000000
   -5    2   -3    8    3    0.001000    0.000000
   -5    2   -3    9    3   -0.000000    0.000000
   -5    2   -3    1    4   -0.001000    0.000000
   -5    2   -3    2    4    0.000174   -0.000000
   -5    2   -3    3    4   -0.000514   -0.000000
   -5    2   -3    4    4    0.003319    0.000000
   -5    2   -3    5    4   -0.000059   -0.000000
   -5    2   -3    6    4   -0.000093   -0.000000
   -5    2   -3    7    4   -0.000134    0.000000
   -5    2   -3    8    4   -0.002452   -0.000000
   -5    2   -3    9    4    0.000025    0.000000
   -5    2   -3    1    5    0.002508    0.000000
   -5    2   -3    2    5    0.003692    0.000000
   -5    2   -3    3    5    0.001642    0.000000
   -5    2   -3    4    5   -0.000175   -0.000000
   -5    2   -3    5    5    0.003162    0.000000
   -5    2   -3    6    5    0.000342    0.000000
   -5    2   -3    7    5   -0.000003   -0.000000
   -5    2   -3    8    5   -0.000174    0.000000
   -5    2   -3    9    5   -0.000004    0.000000
   -5    2   -3    1    6   -0.000012   -0.000000
   -5    2   -3    2    6   -0.000342   -0.000000
   -5    2   -3    3    6   -0.000281   -0.000000
   -5    2   -3    4    6   -0.000092    0.000000
   -5    2   -3    5    6    0.000191   -0.000000
   -5    2   -3    6    6    0.000233    0.000000
   -5    2   -3    7    6    0.000000    0.000000
   -5    2   -3    8    6   -0.000093   -0.000000
   -5    2   -3    9    6   -0.000000   -0.000000
   -5    2   -3    1    7    0.000000    0.000000
   -5    2   -3    2    7    0.000003    0.000000
   -5    2   -3    3    7    0.000002    0.000000
   -5    2   -3    4    7    0.000135   -0.000000
   -5    2   -3    5    7   -0.000001    0.000000
   -5    2   -3    6    7    0.000000    0.000000
   -5    2   -3    7    7    0.000094   -0.000000
   -5    2   -3    8    7   -0.000134    0.000000
   -5    2   -3    9    7    0.000092   -0.000000
   -5    2   -3    1    8   -0.001001   -0.000000
   -5    2   -3    2    8    0.000175    0.000000
   -5    2   -3    3    8   -0.000514    0.000000
   -5    2   -3    4    8   -0.002452    0.000000
   -5    2   -3    5    8   -0.000059    0.000000
   -5    2   -3    6    8   -0.000092    0.000000
   -5    2   -3    7    8    0.000135   -0.000000
   -5    2   -3    8    8    0.003319   -0.000000
   -5    2   -3    9    8   -0.000023   -0.000000
   -5    2   -3    1    9    0.000000    0.000000
   -5    2   -3    2    9    0.000004   -0.000000
   -5    2   -3    3    9    0.000003    0.000000
   -5    2   -3    4    9   -0.000023   -0.000000
   -5    2   -3    5    9   -0.000002   -0.000000
   -5    2   -3    6    9   -0.000000    0.000000
   -5    2   -3    7    9    0.000092    0.000000
   -5    2   -3    8    9    0.000025    0.000000
   -5    2   -3    9    9    0.000156   -0.000000
   -5    2   -2    1    1    0.001456    0.000000
   -5    2   -2    2    1    0.003879    0.000000
   -5    2   -2    3    1    0.002231    0.000000
   -5    2   -2    4    1    0.000522   -0.000000
   -5    2   -2    5    1    0.003327   -0.000000
   -5    2   -2    6    1   -0.000266    0.000000
   -5    2   -2    7    1   -0.000061   -0.000000
   -5    2   -2    8    1    0.000836    0.000000
   -5    2   -2    9    1   -0.000216    0.000000
   -5    2   -2    1    2    0.003670    0.000000
   -5    2   -2    2    2    0.001455   -0.000000
   -5    2   -2    3    2    0.003327    0.000000
   -5    2   -2    4    2    0.000719   -0.000000
   -5    2   -2    5    2    0.001453   -0.000000
   -5    2   -2    6    2   -0.000422    0.000000
   -5    2   -2    7    2    0.000202   -0.000000
   -5    2   -2    8    2   -0.000725    0.000000
   -5    2   -2    9    2    0.000116    0.000000
   -5    2   -2    1    3    0.001455    0.000000
   -5    2   -2    2    3    0.003327    0.000000
   -5    2   -2    3    3    0.001456    0.000000
   -5    2   -2    4    3    0.000720    0.000000
   -5    2   -2    5    3    0.003670   -0.000000
   -5    2   -2    6    3   -0.000421    0.000000
   -5    2   -2    7    3    0.000114   -0.000000
   -5    2   -2    8    3   -0.000726   -0.000000
   -5    2   -2    9    3    0.000203   -0.000000
   -5    2   -2    1    4    0.000726    0.000000
   -5    2   -2    2    4   -0.000837   -0.000000
   -5    2   -2    3    4   -0.000836   -0.000000
   -5    2   -2    4    4    0.002222    0.000000
   -5    2   -2    5    4    0.000725   -0.000000
   -5    2   -2    6    4    0.001062   -0.000000
   -5    2   -2    7    4    0.000123    0.000000
   -5    2   -2    8    4   -0.003406   -0.000000
   -5    2   -2    9    4    0.000118    0.000000
   -5    2   -2    1    5    0.003327    0.000000
   -5    2   -2    2    5    0.002230    0.000000
   -5    2   -2    3    5    0.003879    0.000000
   -5    2   -2    4    5    0.000521    0.000000
   -5    2   -2    5    5    0.001455   -0.000000
   -5    2   -2    6    5   -0.000265    0.000000
   -5    2   -2    7    5   -0.000217   -0.000000
   -5    2   -2    8    5    0.000837    0.000000
   -5    2   -2    9    5   -0.000060    0.000000
   -5    2   -2    1    6    0.000421   -0.000000
   -5    2   -2    2    6    0.000265   -0.000000
   -5    2   -2    3    6    0.000266   -0.000000
   -5    2   -2    4    6   -0.000662    0.000000
   -5    2   -2    5    6    0.000422   -0.000000
   -5    2   -2    6    6    0.000178    0.000000
   -5    2   -2    7    6   -0.000114    0.000000
   -5    2   -2    8    6    0.001062    0.000000
   -5    2   -2    9    6   -0.000115    0.000000
   -5    2   -2    1    7   -0.000114    0.000000
   -5    2   -2    2    7    0.000217    0.000000
   -5    2   -2    3    7    0.000061    0.000000
   -5    2   -2    4    7    0.000299   -0.000000
   -5    2   -2    5    7   -0.000202    0.000000
   -5    2   -2    6    7   -0.000114    0.000000
   -5    2   -2    7    7    0.000004   -0.000000
   -5    2   -2    8    7    0.000123    0.000000
   -5    2   -2    9    7    0.000106   -0.000000
   -5    2   -2    1    8   -0.000720   -0.000000
   -5    2   -2    2    8   -0.000521    0.000000
   -5    2   -2    3    8   -0.000522   -0.000000
   -5    2   -2    4    8   -0.002983    0.000000
   -5    2   -2    5    8   -0.000719    0.000000
   -5    2   -2    6    8   -0.000662    0.000000
   -5    2   -2    7    8    0.000299   -0.000000
   -5    2   -2    8    8    0.002222    0.000000
   -5    2   -2    9    8    0.000302   -0.000000
   -5    2   -2    1    9   -0.000203   -0.000000
   -5    2   -2    2    9    0.000060   -0.000000
   -5    2   -2    3    9    0.000216   -0.000000
   -5    2   -2    4    9    0.000302   -0.000000
   -5    2   -2    5    9   -0.000116   -0.000000
   -5    2   -2    6    9   -0.000115   -0.000000
   -5    2   -2    7    9    0.000106   -0.000000
   -5    2   -2    8    9    0.000118    0.000000
   -5    2   -2    9    9    0.000005   -0.000000
   -5    2   -1    1    1    0.000096   -0.000000
   -5    2   -1    2    1   -0.000358    0.000000
   -5    2   -1    3    1   -0.004405   -0.000000
   -5    2   -1    4    1   -0.000463    0.000000
   -5    2   -1    5    1    0.002090    0.000000
   -5    2   -1    6    1    0.000357    0.000000
   -5    2   -1    7    1   -0.000694   -0.000000
   -5    2   -1    8    1   -0.002094   -0.000000
   -5    2   -1    9    1    0.000531   -0.000000
   -5    2   -1    1    2    0.001026    0.000000
   -5    2   -1    2    2   -0.001348    0.000000
   -5    2   -1    3    2    0.002090    0.000000
   -5    2   -1    4    2    0.000947   -0.000000
   -5    2   -1    5    2   -0.002642   -0.000000
   -5    2   -1    6    2    0.000034    0.000000
   -5    2   -1    7    2   -0.000427   -0.000000
   -5    2   -1    8    2    0.000358    0.000000
   -5    2   -1    9    2   -0.000405    0.000000
   -5    2   -1    1    3    0.001910   -0.000000
   -5    2   -1    2    3    0.000947    0.000000
   -5    2   -1    3    3    0.000096   -0.000000
   -5    2   -1    4    3   -0.000549    0.000000
   -5    2   -1    5    3    0.001026    0.000000
   -5    2   -1    6    3   -0.000001    0.000000
   -5    2   -1    7    3   -0.001019   -0.000000
   -5    2   -1    8    3    0.000463   -0.000000
   -5    2   -1    9    3    0.000004    0.000000
   -5    2   -1    1    4   -0.000463    0.000000
   -5    2   -1    2    4    0.002090   -0.000000
   -5    2   -1    3    4    0.002094    0.000000
   -5    2   -1    4    4    0.000096    0.000000
   -5    2   -1    5    4   -0.000358   -0.000000
   -5    2   -1    6    4    0.000682   -0.000000
   -5    2   -1    7    4   -0.000361    0.000000
   -5    2   -1    8    4    0.004405    0.000000
   -5    2   -1    9    4   -0.000544    0.000000
   -5    2   -1    1    5    0.000947    0.000000
   -5    2   -1    2    5   -0.002642   -0.000000
   -5    2   -1    3    5   -0.000358    0.000000
   -5    2   -1    4    5    0.001026    0.000000
   -5    2   -1    5    5   -0.001348   -0.000000
   -5    2   -1    6    5    0.000431    0.000000
   -5    2   -1    7    5   -0.000045   -0.000000
   -5    2   -1    8    5   -0.002090   -0.000000
   -5    2   -1    9    5    0.000399    0.000000
   -5    2   -1    1    6    0.000001   -0.000000
   -5    2   -1    2    6   -0.000431   -0.000000
   -5    2   -1    3    6   -0.000357   -0.000000
   -5    2   -1    4    6   -0.001019    0.000000
   -5    2   -1    5    6   -0.000034   -0.000000
   -5    2   -1    6    6    0.000144   -0.000000
   -5    2   -1    7    6    0.000028    0.000000
   -5    2   -1    8    6    0.000682    0.000000
   -5    2   -1    9    6    0.000184   -0.000000
   -5    2   -1    1    7    0.001019    0.000000
   -5    2   -1    2    7    0.000045    0.000000
   -5    2   -1    3    7    0.000694    0.000000
   -5    2   -1    4    7    0.000014   -0.000000
   -5    2   -1    5    7    0.000427    0.000000
   -5    2   -1    6    7    0.000028   -0.000000
   -5    2   -1    7    7    0.000139   -0.000000
   -5    2   -1    8    7   -0.000361    0.000000
   -5    2   -1    9    7    0.000181    0.000000
   -5    2   -1    1    8    0.000549   -0.000000
   -5    2   -1    2    8   -0.001026    0.000000
   -5    2   -1    3    8    0.000463   -0.000000
   -5    2   -1    4    8   -0.001910    0.000000
   -5    2   -1    5    8   -0.000947    0.000000
   -5    2   -1    6    8   -0.001019    0.000000
   -5    2   -1    7    8    0.000014   -0.000000
   -5    2   -1    8    8    0.000096    0.000000
   -5    2   -1    9    8    0.000016   -0.000000
   -5    2   -1    1    9   -0.000004   -0.000000
   -5    2   -1    2    9   -0.000399   -0.000000
   -5    2   -1    3    9   -0.000531   -0.000000
   -5    2   -1    4    9    0.000016   -0.000000
   -5    2   -1    5    9    0.000405   -0.000000
   -5    2   -1    6    9    0.000184   -0.000000
   -5    2   -1    7    9    0.000181   -0.000000
   -5    2   -1    8    9   -0.000544   -0.000000
   -5    2   -1    9    9    0.000114    0.000000
   -5    3   -4    1    1   -0.001347    0.000000
   -5    3   -4    2    1   -0.000358   -0.000000
   -5    3   -4    3    1   -0.002642    0.000000
   -5    3   -4    4    1   -0.002090   -0.000000
   -5    3   -4    5    1    0.000948   -0.000000
   -5    3   -4    6    1    0.000424    0.000000
   -5    3   -4    7    1   -0.000408   -0.000000
   -5    3   -4    8    1    0.001026    0.000000
   -5    3   -4    9    1    0.000037    0.000000
   -5    3   -4    1    2    0.001027    0.000000
   -5    3   -4    2    2    0.000096    0.000000
   -5    3   -4    3    2    0.000948    0.000000
   -5    3   -4    4    2    0.000464   -0.000000
   -5    3   -4    5    2    0.001910    0.000000
   -5    3   -4    6    2    0.000019    0.000000
   -5    3   -4    7    2   -0.000005   -0.000000
   -5    3   -4    8    2   -0.000550    0.000000
   -5    3   -4    9    2    0.001019    0.000000
   -5    3   -4    1    3   -0.002641    0.000000
   -5    3   -4    2    3    0.002090    0.000000
   -5    3   -4    3    3   -0.001347    0.000000
   -5    3   -4    4    3    0.000358   -0.000000
   -5    3   -4    5    3    0.001027    0.000000
   -5    3   -4    6    3    0.000050    0.000000
   -5    3   -4    7    3    0.000404   -0.000000
   -5    3   -4    8    3    0.000947   -0.000000
   -5    3   -4    9    3    0.000427    0.000000
   -5    3   -4    1    4   -0.000947    0.000000
   -5    3   -4    2    4    0.000463    0.000000
   -5    3   -4    3    4   -0.001026    0.000000
   -5    3   -4    4    4    0.000096   -0.000000
   -5    3   -4    5    4    0.000550   -0.000000
   -5    3   -4    6    4   -0.001019   -0.000000
   -5    3   -4    7    4    0.000004    0.000000
   -5    3   -4    8    4   -0.001910    0.000000
   -5    3   -4    9    4    0.000005   -0.000000
   -5    3   -4    1    5    0.002090    0.000000
   -5    3   -4    2    5   -0.004405   -0.000000
   -5    3   -4    3    5   -0.000358    0.000000
   -5    3   -4    4    5   -0.002094   -0.000000
   -5    3   -4    5    5    0.000096    0.000000
   -5    3   -4    6    5    0.000360    0.000000
   -5    3   -4    7    5   -0.000539   -0.000000
   -5    3   -4    8    5   -0.000463   -0.000000
   -5    3   -4    9    5    0.000687    0.000000
   -5    3   -4    1    6   -0.000050   -0.000000
   -5    3   -4    2    6   -0.000360   -0.000000
   -5    3   -4    3    6   -0.000424   -0.000000
   -5    3   -4    4    6    0.000699    0.000000
   -5    3   -4    5    6   -0.000019   -0.000000
   -5    3   -4    6    6    0.000136    0.000000
   -5    3   -4    7    6   -0.000181   -0.000000
   -5    3   -4    8    6   -0.001019   -0.000000
   -5    3   -4    9    6   -0.000024   -0.000000
   -5    3   -4    1    7   -0.000404    0.000000
   -5    3   -4    2    7    0.000539    0.000000
   -5    3   -4    3    7    0.000408    0.000000
   -5    3   -4    4    7    0.000531   -0.000000
   -5    3   -4    5    7    0.000005    0.000000
   -5    3   -4    6    7   -0.000181   -0.000000
   -5    3   -4    7    7    0.000121   -0.000000
   -5    3   -4    8    7    0.000004    0.000000
   -5    3   -4    9    7    0.000185   -0.000000
   -5    3   -4    1    8   -0.000358   -0.000000
   -5    3   -4    2    8    0.002094    0.000000
   -5    3   -4    3    8    0.002090   -0.000000
   -5    3   -4    4    8    0.004405   -0.000000
   -5    3   -4    5    8   -0.000464    0.000000
   -5    3   -4    6    8    0.000699   -0.000000
   -5    3   -4    7    8    0.000531   -0.000000
   -5    3   -4    8    8    0.000096   -0.000000
   -5    3   -4    9    8    0.000348    0.000000
   -5    3   -4    1    9   -0.000427    0.000000
   -5    3   -4    2    9   -0.000687   -0.000000
   -5    3   -4    3    9   -0.000037    0.000000
   -5    3   -4    4    9    0.000348   -0.000000
   -5    3   -4    5    9   -0.001019   -0.000000
   -5    3   -4    6    9   -0.000024   -0.000000
   -5    3   -4    7    9    0.000185   -0.000000
   -5    3   -4    8    9    0.000005    0.000000
   -5    3   -4    9    9    0.000140   -0.000000
   -5    3   -3    1    1    0.001456    0.000000
   -5    3   -3    2    1    0.003879   -0.000000
   -5    3   -3    3    1    0.002231    0.000000
   -5    3   -3    4    1    0.000837   -0.000000
   -5    3   -3    5    1    0.003327   -0.000000
   -5    3   -3    6    1   -0.000260    0.000000
   -5    3   -3    7    1    0.000065   -0.000000
   -5    3   -3    8    1    0.000521    0.000000
   -5    3   -3    9    1    0.000222   -0.000000
   -5    3   -3    1    2    0.003670    0.000000
   -5    3   -3    2    2    0.001455    0.000000
   -5    3   -3    3    2    0.003327    0.000000
   -5    3   -3    4    2   -0.000726   -0.000000
   -5    3   -3    5    2    0.001454   -0.000000
   -5    3   -3    6    2   -0.000427    0.000000
   -5    3   -3    7    2   -0.000195   -0.000000
   -5    3   -3    8    2    0.000720   -0.000000
   -5    3   -3    9    2   -0.000105    0.000000
   -5    3   -3    1    3    0.001455    0.000000
   -5    3   -3    2    3    0.003327    0.000000
   -5    3   -3    3    3    0.001456    0.000000
   -5    3   -3    4    3   -0.000726    0.000000
   -5    3   -3    5    3    0.003670   -0.000000
   -5    3   -3    6    3   -0.000428    0.000000
   -5    3   -3    7    3   -0.000107   -0.000000
   -5    3   -3    8    3    0.000720   -0.000000
   -5    3   -3    9    3   -0.000193   -0.000000
   -5    3   -3    1    4   -0.000720   -0.000000
   -5    3   -3    2    4   -0.000522    0.000000
   -5    3   -3    3    4   -0.000521   -0.000000
   -5    3   -3    4    4    0.002222   -0.000000
   -5    3   -3    5    4   -0.000720   -0.000000
   -5    3   -3    6    4   -0.000673   -0.000000
   -5    3   -3    7    4   -0.000289    0.000000
   -5    3   -3    8    4   -0.002983   -0.000000
   -5    3   -3    9    4   -0.000286    0.000000
   -5    3   -3    1    5    0.003327    0.000000
   -5    3   -3    2    5    0.002230    0.000000
   -5    3   -3    3    5    0.003879    0.000000
   -5    3   -3    4    5    0.000836    0.000000
   -5    3   -3    5    5    0.001455   -0.000000
   -5    3   -3    6    5   -0.000260    0.000000
   -5    3   -3    7    5    0.000221   -0.000000
   -5    3   -3    8    5    0.000522   -0.000000
   -5    3   -3    9    5    0.000066    0.000000
   -5    3   -3    1    6    0.000428   -0.000000
   -5    3   -3    2    6    0.000260   -0.000000
   -5    3   -3    3    6    0.000260   -0.000000
   -5    3   -3    4    6    0.001057   -0.000000
   -5    3   -3    5    6    0.000427   -0.000000
   -5    3   -3    6    6    0.000187    0.000000
   -5    3   -3    7    6    0.000114   -0.000000
   -5    3   -3    8    6   -0.000673   -0.000000
   -5    3   -3    9    6    0.000112   -0.000000
   -5    3   -3    1    7    0.000107    0.000000
   -5    3   -3    2    7   -0.000221    0.000000
   -5    3   -3    3    7   -0.000065    0.000000
   -5    3   -3    4    7   -0.000139   -0.000000
   -5    3   -3    5    7    0.000195    0.000000
   -5    3   -3    6    7    0.000114    0.000000
   -5    3   -3    7    7    0.000001   -0.000000
   -5    3   -3    8    7   -0.000289    0.000000
   -5    3   -3    9    7    0.000101   -0.000000
   -5    3   -3    1    8    0.000726    0.000000
   -5    3   -3    2    8   -0.000836    0.000000
   -5    3   -3    3    8   -0.000837    0.000000
   -5    3   -3    4    8   -0.003406    0.000000
   -5    3   -3    5    8    0.000726    0.000000
   -5    3   -3    6    8    0.001057   -0.000000
   -5    3   -3    7    8   -0.000139   -0.000000
   -5    3   -3    8    8    0.002222   -0.000000
   -5    3   -3    9    8   -0.000143   -0.000000
   -5    3   -3    1    9    0.000193    0.000000
   -5    3   -3    2    9   -0.000066   -0.000000
   -5    3   -3    3    9   -0.000222    0.000000
   -5    3   -3    4    9   -0.000143   -0.000000
   -5    3   -3    5    9    0.000105   -0.000000
   -5    3   -3    6    9    0.000112    0.000000
   -5    3   -3    7    9    0.000101   -0.000000
   -5    3   -3    8    9   -0.000286    0.000000
   -5    3   -3    9    9    0.000000   -0.000000
   -5    3   -2    1    1    0.003163   -0.000000
   -5    3   -2    2    1    0.001642    0.000000
   -5    3   -2    3    1    0.003693   -0.000000
   -5    3   -2    4    1   -0.000174    0.000000
   -5    3   -2    5    1    0.002508    0.000000
   -5    3   -2    6    1    0.000343    0.000000
   -5    3   -2    7    1   -0.000003   -0.000000
   -5    3   -2    8    1   -0.000174   -0.000000
   -5    3   -2    9    1   -0.000004   -0.000000
   -5    3   -2    1    2    0.000671    0.000000
   -5    3   -2    2    2    0.002600    0.000000
   -5    3   -2    3    2    0.002508    0.000000
   -5    3   -2    4    2    0.001000    0.000000
   -5    3   -2    5    2   -0.000145    0.000000
   -5    3   -2    6    2    0.000012    0.000000
   -5    3   -2    7    2   -0.000000   -0.000000
   -5    3   -2    8    2    0.001001   -0.000000
   -5    3   -2    9    2   -0.000000    0.000000
   -5    3   -2    1    3    0.003496   -0.000000
   -5    3   -2    2    3   -0.000104    0.000000
   -5    3   -2    3    3    0.003163   -0.000000
   -5    3   -2    4    3    0.000059    0.000000
   -5    3   -2    5    3    0.000671    0.000000
   -5    3   -2    6    3   -0.000191    0.000000
   -5    3   -2    7    3    0.000001   -0.000000
   -5    3   -2    8    3    0.000059   -0.000000
   -5    3   -2    9    3    0.000002   -0.000000
   -5    3   -2    1    4   -0.000059    0.000000
   -5    3   -2    2    4   -0.000514    0.000000
   -5    3   -2    3    4    0.000174    0.000000
   -5    3   -2    4    4    0.003319    0.000000
   -5    3   -2    5    4   -0.001001   -0.000000
   -5    3   -2    6    4   -0.000094   -0.000000
   -5    3   -2    7    4    0.000024    0.000000
   -5    3   -2    8    4   -0.002452   -0.000000
   -5    3   -2    9    4   -0.000133    0.000000
   -5    3   -2    1    5   -0.000104    0.000000
   -5    3   -2    2    5    0.005150    0.000000
   -5    3   -2    3    5    0.001642    0.000000
   -5    3   -2    4    5    0.000514    0.000000
   -5    3   -2    5    5    0.002600   -0.000000
   -5    3   -2    6    5    0.000281    0.000000
   -5    3   -2    7    5   -0.000002   -0.000000
   -5    3   -2    8    5    0.000514   -0.000000
   -5    3   -2    9    5   -0.000003    0.000000
   -5    3   -2    1    6    0.000191   -0.000000
   -5    3   -2    2    6   -0.000281   -0.000000
   -5    3   -2    3    6   -0.000343   -0.000000
   -5    3   -2    4    6   -0.000091    0.000000
   -5    3   -2    5    6   -0.000012   -0.000000
   -5    3   -2    6    6    0.000233   -0.000000
   -5    3   -2    7    6    0.000000    0.000000
   -5    3   -2    8    6   -0.000094   -0.000000
   -5    3   -2    9    6   -0.000001   -0.000000
   -5    3   -2    1    7   -0.000001    0.000000
   -5    3   -2    2    7    0.000002    0.000000
   -5    3   -2    3    7    0.000003    0.000000
   -5    3   -2    4    7   -0.000023   -0.000000
   -5    3   -2    5    7    0.000000    0.000000
   -5    3   -2    6    7    0.000000    0.000000
   -5    3   -2    7    7    0.000156    0.000000
   -5    3   -2    8    7    0.000024    0.000000
   -5    3   -2    9    7    0.000092   -0.000000
   -5    3   -2    1    8   -0.000059   -0.000000
   -5    3   -2    2    8   -0.000514   -0.000000
   -5    3   -2    3    8    0.000174   -0.000000
   -5    3   -2    4    8   -0.002452    0.000000
   -5    3   -2    5    8   -0.001000    0.000000
   -5    3   -2    6    8   -0.000091    0.000000
   -5    3   -2    7    8   -0.000023   -0.000000
   -5    3   -2    8    8    0.003319    0.000000
   -5    3   -2    9    8    0.000135   -0.000000
   -5    3   -2    1    9   -0.000002   -0.000000
   -5    3   -2    2    9    0.000003   -0.000000
   -5    3   -2    3    9    0.000004   -0.000000
   -5    3   -2    4    9    0.000135   -0.000000
   -5    3   -2    5    9    0.000000   -0.000000
   -5    3   -2    6    9   -0.000001    0.000000
   -5    3   -2    7    9    0.000092   -0.000000
   -5    3   -2    8    9   -0.000133    0.000000
   -5    3   -2    9    9    0.000094   -0.000000
   -5    3   -1    1    1   -0.002398   -0.000000
   -5    3   -1    2    1   -0.003046    0.000000
   -5    3   -1    3    1   -0.005781   -0.000000
   -5    3   -1    4    1   -0.002474    0.000000
   -5    3   -1    5    1   -0.000771    0.000000
   -5    3   -1    6    1    0.000404    0.000000
   -5    3   -1    7    1    0.000280   -0.000000
   -5    3   -1    8    1    0.000458   -0.000000
   -5    3   -1    9    1   -0.000241    0.000000
   -5    3   -1    1    2   -0.000107    0.000000
   -5    3   -1    2    2    0.000909    0.000000
   -5    3   -1    3    2   -0.000771    0.000000
   -5    3   -1    4    2   -0.001464   -0.000000
   -5    3   -1    5    2    0.001826    0.000000
   -5    3   -1    6    2    0.000411    0.000000
   -5    3   -1    7    2    0.000314   -0.000000
   -5    3   -1    8    2    0.000481    0.000000
   -5    3   -1    9    2    0.000175   -0.000000
   -5    3   -1    1    3   -0.002426   -0.000000
   -5    3   -1    2    3   -0.000049    0.000000
   -5    3   -1    3    3   -0.002398   -0.000000
   -5    3   -1    4    3    0.000807    0.000000
   -5    3   -1    5    3   -0.000107   -0.000000
   -5    3   -1    6    3    0.000619    0.000000
   -5    3   -1    7    3    0.000203   -0.000000
   -5    3   -1    8    3   -0.000979   -0.000000
   -5    3   -1    9    3   -0.000164   -0.000000
   -5    3   -1    1    4    0.000979    0.000000
   -5    3   -1    2    4   -0.001265   -0.000000
   -5    3   -1    3    4   -0.000458    0.000000
   -5    3   -1    4    4    0.002292   -0.000000
   -5    3   -1    5    4   -0.000481    0.000000
   -5    3   -1    6    4    0.000121   -0.000000
   -5    3   -1    7    4    0.000510    0.000000
   -5    3   -1    8    4   -0.003295   -0.000000
   -5    3   -1    9    4   -0.000021    0.000000
   -5    3   -1    1    5   -0.000049   -0.000000
   -5    3   -1    2    5   -0.001917    0.000000
   -5    3   -1    3    5   -0.003046   -0.000000
   -5    3   -1    4    5   -0.003635    0.000000
   -5    3   -1    5    5    0.000909    0.000000
   -5    3   -1    6    5    0.000217    0.000000
   -5    3   -1    7    5    0.000194   -0.000000
   -5    3   -1    8    5    0.001265   -0.000000
   -5    3   -1    9    5    0.000425    0.000000
   -5    3   -1    1    6   -0.000619   -0.000000
   -5    3   -1    2    6   -0.000217   -0.000000
   -5    3   -1    3    6   -0.000404   -0.000000
   -5    3   -1    4    6    0.000047   -0.000000
   -5    3   -1    5    6   -0.000411   -0.000000
   -5    3   -1    6    6    0.000137   -0.000000
   -5    3   -1    7    6    0.000014    0.000000
   -5    3   -1    8    6    0.000121    0.000000
   -5    3   -1    9    6    0.000109   -0.000000
   -5    3   -1    1    7   -0.000203    0.000000
   -5    3   -1    2    7   -0.000194   -0.000000
   -5    3   -1    3    7   -0.000280    0.000000
   -5    3   -1    4    7   -0.000582   -0.000000
   -5    3   -1    5    7   -0.000314   -0.000000
   -5    3   -1    6    7    0.000014    0.000000
   -5    3   -1    7    7   -0.000127    0.000000
   -5    3   -1    8    7    0.000510    0.000000
   -5    3   -1    9    7    0.000043   -0.000000
   -5    3   -1    1    8   -0.000807   -0.000000
   -5    3   -1    2    8    0.003635    0.000000
   -5    3   -1    3    8    0.002474   -0.000000
   -5    3   -1    4    8   -0.000557    0.000000
   -5    3   -1    5    8    0.001464   -0.000000
   -5    3   -1    6    8    0.000047   -0.000000
   -5    3   -1    7    8   -0.000582   -0.000000
   -5    3   -1    8    8    0.002292    0.000000
   -5    3   -1    9    8    0.000090   -0.000000
   -5    3   -1    1    9    0.000164   -0.000000
   -5    3   -1    2    9   -0.000425    0.000000
   -5    3   -1    3    9    0.000241   -0.000000
   -5    3   -1    4    9    0.000090    0.000000
   -5    3   -1    5    9   -0.000175   -0.000000
   -5    3   -1    6    9    0.000109    0.000000
   -5    3   -1    7    9    0.000043    0.000000
   -5    3   -1    8    9   -0.000021   -0.000000
   -5    3   -1    9    9    0.000060    0.000000
   -5    3    0    1    1   -0.004940    0.000000
   -5    3    0    2    1    0.000833    0.000000
   -5    3    0    3    1   -0.004035    0.000000
   -5    3    0    4    1    0.000833   -0.000000
   -5    3    0    5    1   -0.000051    0.000000
   -5    3    0    6    1    0.000172    0.000000
   -5    3    0    7    1   -0.000173   -0.000000
   -5    3    0    8    1    0.000052    0.000000
   -5    3    0    9    1    0.000169    0.000000
   -5    3    0    1    2    0.000053    0.000000
   -5    3    0    2    2    0.001367    0.000000
   -5    3    0    3    2   -0.000051    0.000000
   -5    3    0    4    2   -0.001201    0.000000
   -5    3    0    5    2    0.003125   -0.000000
   -5    3    0    6    2    0.000005    0.000000
   -5    3    0    7    2    0.000623   -0.000000
   -5    3    0    8    2    0.000872   -0.000000
   -5    3    0    9    2    0.000000    0.000000
   -5    3    0    1    3   -0.004035    0.000000
   -5    3    0    2    3   -0.000832   -0.000000
   -5    3    0    3    3   -0.004940    0.000000
   -5    3    0    4    3   -0.000832   -0.000000
   -5    3    0    5    3    0.000053    0.000000
   -5    3    0    6    3    0.000174    0.000000
   -5    3    0    7    3    0.000171   -0.000000
   -5    3    0    8    3   -0.000052   -0.000000
   -5    3    0    9    3    0.000169    0.000000
   -5    3    0    1    4    0.000052    0.000000
   -5    3    0    2    4   -0.001201   -0.000000
   -5    3    0    3    4   -0.000052    0.000000
   -5    3    0    4    4    0.001367   -0.000000
   -5    3    0    5    4   -0.000872   -0.000000
   -5    3    0    6    4    0.000005    0.000000
   -5    3    0    7    4    0.000623    0.000000
   -5    3    0    8    4   -0.003125   -0.000000
   -5    3    0    9    4    0.000000   -0.000000
   -5    3    0    1    5   -0.000832   -0.000000
   -5    3    0    2    5    0.001708    0.000000
   -5    3    0    3    5    0.000833    0.000000
   -5    3    0    4    5    0.000547   -0.000000
   -5    3    0    5    5    0.001367    0.000000
   -5    3    0    6    5    0.000002    0.000000
   -5    3    0    7    5    0.000305   -0.000000
   -5    3    0    8    5    0.001201    0.000000
   -5    3    0    9    5    0.000000    0.000000
   -5    3    0    1    6   -0.000174   -0.000000
   -5    3    0    2    6   -0.000002   -0.000000
   -5    3    0    3    6   -0.000172   -0.000000
   -5    3    0    4    6   -0.000002   -0.000000
   -5    3    0    5    6   -0.000005   -0.000000
   -5    3    0    6    6   -0.000136    0.000000
   -5    3    0    7    6   -0.000001    0.000000
   -5    3    0    8    6    0.000005    0.000000
   -5    3    0    9    6    0.000040    0.000000
   -5    3    0    1    7   -0.000171    0.000000
   -5    3    0    2    7   -0.000305    0.000000
   -5    3    0    3    7    0.000173    0.000000
   -5    3    0    4    7   -0.000305   -0.000000
   -5    3    0    5    7   -0.000623    0.000000
   -5    3    0    6    7   -0.000001    0.000000
   -5    3    0    7    7   -0.000220    0.000000
   -5    3    0    8    7    0.000623    0.000000
   -5    3    0    9    7   -0.000000    0.000000
   -5    3    0    1    8    0.000832   -0.000000
   -5    3    0    2    8   -0.000547   -0.000000
   -5    3    0    3    8   -0.000833   -0.000000
   -5    3    0    4    8   -0.001708    0.000000
   -5    3    0    5    8    0.001201   -0.000000
   -5    3    0    6    8   -0.000002   -0.000000
   -5    3    0    7    8   -0.000305   -0.000000
   -5    3    0    8    8    0.001367   -0.000000
   -5    3    0    9    8   -0.000000    0.000000
   -5    3    0    1    9   -0.000169    0.000000
   -5    3    0    2    9   -0.000000   -0.000000
   -5    3    0    3    9   -0.000169    0.000000
   -5    3    0    4    9   -0.000000    0.000000
   -5    3    0    5    9   -0.000000   -0.000000
   -5    3    0    6    9    0.000040    0.000000
   -5    3    0    7    9   -0.000000    0.000000
   -5    3    0    8    9    0.000000   -0.000000
   -5    3    0    9    9   -0.000138   -0.000000
   -5    4   -3    1    1    0.000096   -0.000000
   -5    4   -3    2    1   -0.000358    0.000000
   -5    4   -3    3    1   -0.004405   -0.000000
   -5    4   -3    4    1   -0.002094    0.000000
   -5    4   -3    5    1    0.002090   -0.000000
   -5    4   -3    6    1    0.000355    0.000000
   -5    4   -3    7    1    0.000688   -0.000000
   -5    4   -3    8    1   -0.000464    0.000000
   -5    4   -3    9    1   -0.000540   -0.000000
   -5    4   -3    1    2    0.001026    0.000000
   -5    4   -3    2    2   -0.001348   -0.000000
   -5    4   -3    3    2    0.002090    0.000000
   -5    4   -3    4    2    0.000358   -0.000000
   -5    4   -3    5    2   -0.002642   -0.000000
   -5    4   -3    6    2    0.000050    0.000000
   -5    4   -3    7    2    0.000427   -0.000000
   -5    4   -3    8    2    0.000948   -0.000000
   -5    4   -3    9    2    0.000404    0.000000
   -5    4   -3    1    3    0.001910   -0.000000
   -5    4   -3    2    3    0.000947    0.000000
   -5    4   -3    3    3    0.000096   -0.000000
   -5    4   -3    4    3    0.000463    0.000000
   -5    4   -3    5    3    0.001026    0.000000
   -5    4   -3    6    3    0.000014    0.000000
   -5    4   -3    7    3    0.001019   -0.000000
   -5    4   -3    8    3   -0.000550   -0.000000
   -5    4   -3    9    3   -0.000004   -0.000000
   -5    4   -3    1    4    0.000550   -0.000000
   -5    4   -3    2    4   -0.001026    0.000000
   -5    4   -3    3    4    0.000464   -0.000000
   -5    4   -3    4    4    0.000096    0.000000
   -5    4   -3    5    4   -0.000948   -0.000000
   -5    4   -3    6    4   -0.001019   -0.000000
   -5    4   -3    7    4    0.000001    0.000000
   -5    4   -3    8    4   -0.001910   -0.000000
   -5    4   -3    9    4    0.000008    0.000000
   -5    4   -3    1    5    0.000947    0.000000
   -5    4   -3    2    5   -0.002641   -0.000000
   -5    4   -3    3    5   -0.000358    0.000000
   -5    4   -3    4    5   -0.002090    0.000000
   -5    4   -3    5    5   -0.001348   -0.000000
   -5    4   -3    6    5    0.000423    0.000000
   -5    4   -3    7    5    0.000039   -0.000000
   -5    4   -3    8    5    0.001026   -0.000000
   -5    4   -3    9    5   -0.000409    0.000000
   -5    4   -3    1    6   -0.000014   -0.000000
   -5    4   -3    2    6   -0.000423   -0.000000
   -5    4   -3    3    6   -0.000355   -0.000000
   -5    4   -3    4    6    0.000700    0.000000
   -5    4   -3    5    6   -0.000050   -0.000000
   -5    4   -3    6    6    0.000135   -0.000000
   -5    4   -3    7    6   -0.000024    0.000000
   -5    4   -3    8    6   -0.001019   -0.000000
   -5    4   -3    9    6   -0.000182    0.000000
   -5    4   -3    1    7   -0.001019    0.000000
   -5    4   -3    2    7   -0.000039    0.000000
   -5    4   -3    3    7   -0.000688    0.000000
   -5    4   -3    4    7    0.000350   -0.000000
   -5    4   -3    5    7   -0.000427    0.000000
   -5    4   -3    6    7   -0.000024    0.000000
   -5    4   -3    7    7    0.000140   -0.000000
   -5    4   -3    8    7    0.000001    0.000000
   -5    4   -3    9    7    0.000185   -0.000000
   -5    4   -3    1    8   -0.000463   -0.000000
   -5    4   -3    2    8    0.002090   -0.000000
   -5    4   -3    3    8    0.002094   -0.000000
   -5    4   -3    4    8    0.004405   -0.000000
   -5    4   -3    5    8   -0.000358    0.000000
   -5    4   -3    6    8    0.000700   -0.000000
   -5    4   -3    7    8    0.000351   -0.000000
   -5    4   -3    8    8    0.000096    0.000000
   -5    4   -3    9    8    0.000528   -0.000000
   -5    4   -3    1    9    0.000004    0.000000
   -5    4   -3    2    9    0.000409   -0.000000
   -5    4   -3    3    9    0.000540    0.000000
   -5    4   -3    4    9    0.000528   -0.000000
   -5    4   -3    5    9   -0.000404   -0.000000
   -5    4   -3    6    9   -0.000182    0.000000
   -5    4   -3    7    9    0.000185   -0.000000
   -5    4   -3    8    9    0.000008    0.000000
   -5    4   -3    9    9    0.000123   -0.000000
   -5    4   -2    1    1   -0.002398   -0.000000
   -5    4   -2    2    1   -0.003046    0.000000
   -5    4   -2    3    1   -0.005781   -0.000000
   -5    4   -2    4    1    0.000459    0.000000
   -5    4   -2    5    1   -0.000771    0.000000
   -5    4   -2    6    1    0.000406    0.000000
   -5    4   -2    7    1   -0.000286   -0.000000
   -5    4   -2    8    1   -0.002474   -0.000000
   -5    4   -2    9    1    0.000231   -0.000000
   -5    4   -2    1    2   -0.000107    0.000000
   -5    4   -2    2    2    0.000909    0.000000
   -5    4   -2    3    2   -0.000771    0.000000
   -5    4   -2    4    2    0.000480    0.000000
   -5    4   -2    5    2    0.001826    0.000000
   -5    4   -2    6    2    0.000402    0.000000
   -5    4   -2    7    2   -0.000320    0.000000
   -5    4   -2    8    2   -0.001464   -0.000000
   -5    4   -2    9    2   -0.000185    0.000000
   -5    4   -2    1    3   -0.002426   -0.000000
   -5    4   -2    2    3   -0.000048    0.000000
   -5    4   -2    3    3   -0.002398   -0.000000
   -5    4   -2    4    3   -0.000978    0.000000
   -5    4   -2    5    3   -0.000107   -0.000000
   -5    4   -2    6    3    0.000620    0.000000
   -5    4   -2    7    3   -0.000213   -0.000000
   -5    4   -2    8    3    0.000806    0.000000
   -5    4   -2    9    3    0.000150   -0.000000
   -5    4   -2    1    4   -0.000806    0.000000
   -5    4   -2    2    4    0.003636    0.000000
   -5    4   -2    3    4    0.002474    0.000000
   -5    4   -2    4    4    0.002292    0.000000
   -5    4   -2    5    4    0.001464   -0.000000
   -5    4   -2    6    4    0.000054   -0.000000
   -5    4   -2    7    4    0.000581    0.000000
   -5    4   -2    8    4   -0.000558   -0.000000
   -5    4   -2    9    4   -0.000091    0.000000
   -5    4   -2    1    5   -0.000048   -0.000000
   -5    4   -2    2    5   -0.001918   -0.000000
   -5    4   -2    3    5   -0.003046   -0.000000
   -5    4   -2    4    5    0.001265    0.000000
   -5    4   -2    5    5    0.000909    0.000000
   -5    4   -2    6    5    0.000204    0.000000
   -5    4   -2    7    5   -0.000197    0.000000
   -5    4   -2    8    5   -0.003636   -0.000000
   -5    4   -2    9    5   -0.000430   -0.000000
   -5    4   -2    1    6   -0.000620   -0.000000
   -5    4   -2    2    6   -0.000204   -0.000000
   -5    4   -2    3    6   -0.000406   -0.000000
   -5    4   -2    4    6    0.000114   -0.000000
   -5    4   -2    5    6   -0.000402   -0.000000
   -5    4   -2    6    6    0.000131   -0.000000
   -5    4   -2    7    6   -0.000017    0.000000
   -5    4   -2    8    6    0.000054   -0.000000
   -5    4   -2    9    6   -0.000110   -0.000000
   -5    4   -2    1    7    0.000213    0.000000
   -5    4   -2    2    7    0.000197    0.000000
   -5    4   -2    3    7    0.000286    0.000000
   -5    4   -2    4    7   -0.000512   -0.000000
   -5    4   -2    5    7    0.000320    0.000000
   -5    4   -2    6    7   -0.000017    0.000000
   -5    4   -2    7    7   -0.000126   -0.000000
   -5    4   -2    8    7    0.000581    0.000000
   -5    4   -2    9    7    0.000045   -0.000000
   -5    4   -2    1    8    0.000978   -0.000000
   -5    4   -2    2    8   -0.001265   -0.000000
   -5    4   -2    3    8   -0.000459   -0.000000
   -5    4   -2    4    8   -0.003296   -0.000000
   -5    4   -2    5    8   -0.000480    0.000000
   -5    4   -2    6    8    0.000114    0.000000
   -5    4   -2    7    8   -0.000512   -0.000000
   -5    4   -2    8    8    0.002292    0.000000
   -5    4   -2    9    8    0.000018   -0.000000
   -5    4   -2    1    9   -0.000150    0.000000
   -5    4   -2    2    9    0.000430   -0.000000
   -5    4   -2    3    9   -0.000231    0.000000
   -5    4   -2    4    9    0.000018   -0.000000
   -5    4   -2    5    9    0.000185    0.000000
   -5    4   -2    6    9   -0.000110   -0.000000
   -5    4   -2    7    9    0.000045   -0.000000
   -5    4   -2    8    9   -0.000091   -0.000000
[...]
    5   -1    4    7    1   -0.000000   -0.000000
    5   -1    4    8    1    0.001443    0.000000
    5   -1    4    9    1   -0.000000    0.000000
    5   -1    4    1    2   -0.001914   -0.000000
    5   -1    4    2    2    0.000210    0.000000
    5   -1    4    3    2   -0.002666   -0.000000
    5   -1    4    4    2   -0.000603    0.000000
    5   -1    4    5    2    0.001694   -0.000000
    5   -1    4    6    2   -0.000030    0.000000
    5   -1    4    7    2    0.000000   -0.000000
    5   -1    4    8    2   -0.000604   -0.000000
    5   -1    4    9    2    0.000000    0.000000
    5   -1    4    1    3   -0.005397    0.000000
    5   -1    4    2    3    0.001915   -0.000000
    5   -1    4    3    3   -0.003822    0.000000
    5   -1    4    4    3    0.000561   -0.000000
    5   -1    4    5    3   -0.001914   -0.000000
    5   -1    4    6    3   -0.000000    0.000000
    5   -1    4    7    3   -0.000000   -0.000000
    5   -1    4    8    3    0.000561    0.000000
    5   -1    4    9    3   -0.000000    0.000000
    5   -1    4    1    4   -0.000561    0.000000
    5   -1    4    2    4   -0.000603   -0.000000
    5   -1    4    3    4   -0.001443    0.000000
    5   -1    4    4    4   -0.004576   -0.000000
    5   -1    4    5    4    0.000604    0.000000
    5   -1    4    6    4    0.000001   -0.000000
    5   -1    4    7    4   -0.000000    0.000000
    5   -1    4    8    4    0.003308    0.000000
    5   -1    4    9    4    0.000059   -0.000000
    5   -1    4    1    5    0.001915    0.000000
    5   -1    4    2    5    0.001693    0.000000
    5   -1    4    3    5    0.002667    0.000000
    5   -1    4    4    5    0.000604    0.000000
    5   -1    4    5    5    0.000210    0.000000
    5   -1    4    6    5   -0.000030    0.000000
    5   -1    4    7    5    0.000000   -0.000000
    5   -1    4    8    5    0.000603    0.000000
    5   -1    4    9    5    0.000000    0.000000
    5   -1    4    1    6    0.000000   -0.000000
    5   -1    4    2    6    0.000030   -0.000000
    5   -1    4    3    6    0.000000   -0.000000
    5   -1    4    4    6   -0.000001    0.000000
    5   -1    4    5    6    0.000030   -0.000000
    5   -1    4    6    6   -0.000178    0.000000
    5   -1    4    7    6    0.000002   -0.000000
    5   -1    4    8    6    0.000001   -0.000000
    5   -1    4    9    6    0.000001    0.000000
    5   -1    4    1    7    0.000000    0.000000
    5   -1    4    2    7   -0.000000    0.000000
    5   -1    4    3    7    0.000000    0.000000
    5   -1    4    4    7    0.000000   -0.000000
    5   -1    4    5    7   -0.000000    0.000000
    5   -1    4    6    7    0.000002   -0.000000
    5   -1    4    7    7    0.000041    0.000000
    5   -1    4    8    7   -0.000000    0.000000
    5   -1    4    9    7    0.000000   -0.000000
    5   -1    4    1    8   -0.000561   -0.000000
    5   -1    4    2    8   -0.000604    0.000000
    5   -1    4    3    8   -0.001442   -0.000000
    5   -1    4    4    8    0.003308   -0.000000
    5   -1    4    5    8    0.000603   -0.000000
    5   -1    4    6    8   -0.000001    0.000000
    5   -1    4    7    8    0.000000   -0.000000
    5   -1    4    8    8   -0.004576   -0.000000
    5   -1    4    9    8   -0.000059    0.000000
    5   -1    4    1    9    0.000000   -0.000000
    5   -1    4    2    9   -0.000000   -0.000000
    5   -1    4    3    9    0.000000   -0.000000
    5   -1    4    4    9   -0.000059   -0.000000
    5   -1    4    5    9   -0.000000   -0.000000
    5   -1    4    6    9    0.000001    0.000000
    5   -1    4    7    9    0.000000   -0.000000
    5   -1    4    8    9    0.000059    0.000000
    5   -1    4    9    9   -0.000103   -0.000000
    5    0    3    1    1    0.001366    0.000000
    5    0    3    2    1    0.000051    0.000000
    5    0    3    3    1    0.003125    0.000000
    5    0    3    4    1   -0.000872   -0.000000
    5    0    3    5    1   -0.000053   -0.000000
    5    0    3    6    1   -0.000007    0.000000
    5    0    3    7    1    0.000000   -0.000000
    5    0    3    8    1    0.001201    0.000000
    5    0    3    9    1   -0.000623    0.000000
    5    0    3    1    2    0.000832    0.000000
    5    0    3    2    2   -0.004940    0.000000
    5    0    3    3    2   -0.000053    0.000000
    5    0    3    4    2   -0.000052    0.000000
    5    0    3    5    2   -0.004035    0.000000
    5    0    3    6    2   -0.000170    0.000000
    5    0    3    7    2   -0.000170   -0.000000
    5    0    3    8    2   -0.000832   -0.000000
    5    0    3    9    2    0.000174    0.000000
    5    0    3    1    3    0.001708    0.000000
    5    0    3    2    3   -0.000833    0.000000
    5    0    3    3    3    0.001366    0.000000
    5    0    3    4    3   -0.001201   -0.000000
    5    0    3    5    3    0.000832   -0.000000
    5    0    3    6    3   -0.000004    0.000000
    5    0    3    7    3    0.000000   -0.000000
    5    0    3    8    3   -0.000547    0.000000
    5    0    3    9    3   -0.000305    0.000000
    5    0    3    1    4    0.000547    0.000000
    5    0    3    2    4   -0.000833    0.000000
    5    0    3    3    4   -0.001201    0.000000
    5    0    3    4    4    0.001367   -0.000000
    5    0    3    5    4    0.000832    0.000000
    5    0    3    6    4   -0.000004   -0.000000
    5    0    3    7    4    0.000000    0.000000
    5    0    3    8    4   -0.001708    0.000000
    5    0    3    9    4   -0.000305   -0.000000
    5    0    3    1    5   -0.000833    0.000000
    5    0    3    2    5   -0.004035   -0.000000
    5    0    3    3    5    0.000051    0.000000
    5    0    3    4    5    0.000052    0.000000
    5    0    3    5    5   -0.004940    0.000000
    5    0    3    6    5   -0.000174    0.000000
    5    0    3    7    5   -0.000169   -0.000000
    5    0    3    8    5    0.000833   -0.000000
    5    0    3    9    5   -0.000170    0.000000
    5    0    3    1    6    0.000004   -0.000000
    5    0    3    2    6    0.000174   -0.000000
    5    0    3    3    6    0.000007   -0.000000
    5    0    3    4    6    0.000007    0.000000
    5    0    3    5    6    0.000170   -0.000000
    5    0    3    6    6   -0.000137    0.000000
    5    0    3    7    6    0.000040    0.000000
    5    0    3    8    6   -0.000004   -0.000000
    5    0    3    9    6   -0.000001   -0.000000
    5    0    3    1    7   -0.000000    0.000000
    5    0    3    2    7    0.000169    0.000000
    5    0    3    3    7   -0.000000    0.000000
    5    0    3    4    7   -0.000000   -0.000000
    5    0    3    5    7    0.000170    0.000000
    5    0    3    6    7    0.000040    0.000000
    5    0    3    7    7   -0.000138    0.000000
    5    0    3    8    7    0.000000    0.000000
    5    0    3    9    7   -0.000000   -0.000000
    5    0    3    1    8    0.001201   -0.000000
    5    0    3    2    8   -0.000052   -0.000000
    5    0    3    3    8    0.000872   -0.000000
    5    0    3    4    8   -0.003125    0.000000
    5    0    3    5    8    0.000052   -0.000000
    5    0    3    6    8    0.000007    0.000000
    5    0    3    7    8   -0.000000   -0.000000
    5    0    3    8    8    0.001367   -0.000000
    5    0    3    9    8    0.000623    0.000000
    5    0    3    1    9    0.000305   -0.000000
    5    0    3    2    9    0.000170   -0.000000
    5    0    3    3    9    0.000623   -0.000000
    5    0    3    4    9    0.000623    0.000000
    5    0    3    5    9   -0.000174   -0.000000
    5    0    3    6    9   -0.000001    0.000000
    5    0    3    7    9   -0.000000    0.000000
    5    0    3    8    9   -0.000305   -0.000000
    5    0    3    9    9   -0.000220   -0.000000
    6   -4    2    1    1    0.002856    0.000000
    6   -4    2    2    1   -0.000320   -0.000000
    6   -4    2    3    1    0.003493    0.000000
    6   -4    2    4    1    0.000288   -0.000000
    6   -4    2    5    1   -0.000520   -0.000000
    6   -4    2    6    1   -0.000473    0.000000
    6   -4    2    7    1    0.000004   -0.000000
    6   -4    2    8    1    0.000288    0.000000
    6   -4    2    9    1    0.000006    0.000000
    6   -4    2    1    2    0.000520   -0.000000
    6   -4    2    2    2    0.004545   -0.000000
    6   -4    2    3    2   -0.000520    0.000000
    6   -4    2    4    2    0.000320    0.000000
    6   -4    2    5    2    0.004815   -0.000000
    6   -4    2    6    2   -0.000000    0.000000
    6   -4    2    7    2    0.000000   -0.000000
    6   -4    2    8    2    0.000320    0.000000
    6   -4    2    9    2   -0.000000    0.000000
    6   -4    2    1    3    0.003493    0.000000
    6   -4    2    2    3    0.000320   -0.000000
    6   -4    2    3    3    0.002856    0.000000
    6   -4    2    4    3   -0.000288   -0.000000
    6   -4    2    5    3    0.000520    0.000000
    6   -4    2    6    3   -0.000474    0.000000
    6   -4    2    7    3    0.000004   -0.000000
    6   -4    2    8    3   -0.000288    0.000000
    6   -4    2    9    3    0.000006    0.000000
    6   -4    2    1    4    0.000288   -0.000000
    6   -4    2    2    4   -0.000520   -0.000000
    6   -4    2    3    4   -0.000288   -0.000000
    6   -4    2    4    4    0.002856    0.000000
    6   -4    2    5    4   -0.000320    0.000000
    6   -4    2    6    4    0.000004    0.000000
    6   -4    2    7    4    0.000474    0.000000
    6   -4    2    8    4   -0.003493   -0.000000
    6   -4    2    9    4    0.000000   -0.000000
    6   -4    2    1    5    0.000320    0.000000
    6   -4    2    2    5    0.004815    0.000000
    6   -4    2    3    5   -0.000320   -0.000000
    6   -4    2    4    5    0.000520   -0.000000
    6   -4    2    5    5    0.004545   -0.000000
    6   -4    2    6    5   -0.000000    0.000000
    6   -4    2    7    5    0.000000   -0.000000
    6   -4    2    8    5    0.000520   -0.000000
    6   -4    2    9    5   -0.000000    0.000000
    6   -4    2    1    6    0.000474   -0.000000
    6   -4    2    2    6    0.000000   -0.000000
    6   -4    2    3    6    0.000473   -0.000000
    6   -4    2    4    6   -0.000004    0.000000
    6   -4    2    5    6    0.000000   -0.000000
    6   -4    2    6    6    0.000018    0.000000
    6   -4    2    7    6    0.000000   -0.000000
    6   -4    2    8    6    0.000004    0.000000
    6   -4    2    9    6   -0.000001    0.000000
    6   -4    2    1    7   -0.000004    0.000000
    6   -4    2    2    7   -0.000000    0.000000
    6   -4    2    3    7   -0.000004    0.000000
    6   -4    2    4    7   -0.000474   -0.000000
    6   -4    2    5    7   -0.000000    0.000000
    6   -4    2    6    7    0.000000   -0.000000
    6   -4    2    7    7    0.000018   -0.000000
    6   -4    2    8    7    0.000474    0.000000
    6   -4    2    9    7    0.000000    0.000000
    6   -4    2    1    8    0.000288    0.000000
    6   -4    2    2    8   -0.000520   -0.000000
    6   -4    2    3    8   -0.000288    0.000000
    6   -4    2    4    8   -0.003493    0.000000
    6   -4    2    5    8   -0.000320    0.000000
    6   -4    2    6    8   -0.000004   -0.000000
    6   -4    2    7    8   -0.000474   -0.000000
    6   -4    2    8    8    0.002856    0.000000
    6   -4    2    9    8   -0.000000    0.000000
    6   -4    2    1    9   -0.000006   -0.000000
    6   -4    2    2    9    0.000000   -0.000000
    6   -4    2    3    9   -0.000006   -0.000000
    6   -4    2    4    9   -0.000000    0.000000
    6   -4    2    5    9    0.000000   -0.000000
    6   -4    2    6    9   -0.000001    0.000000
    6   -4    2    7    9    0.000000    0.000000
    6   -4    2    8    9    0.000000   -0.000000
    6   -4    2    9    9   -0.000055    0.000000
    6   -3    3    1    1    0.001366   -0.000000
    6   -3    3    2    1    0.000547   -0.000000
    6   -3    3    3    1    0.001708   -0.000000
    6   -3    3    4    1    0.000832   -0.000000
    6   -3    3    5    1   -0.001201    0.000000
    6   -3    3    6    1    0.000305    0.000000
    6   -3    3    7    1   -0.000002   -0.000000
    6   -3    3    8    1    0.000833    0.000000
    6   -3    3    9    1   -0.000004    0.000000
    6   -3    3    1    2   -0.000872   -0.000000
    6   -3    3    2    2    0.001367    0.000000
    6   -3    3    3    2   -0.001201    0.000000
    6   -3    3    4    2   -0.000052    0.000000
    6   -3    3    5    2    0.003125   -0.000000
    6   -3    3    6    2    0.000623    0.000000
    6   -3    3    7    2   -0.000005   -0.000000
    6   -3    3    8    2   -0.000052   -0.000000
    6   -3    3    9    2   -0.000007    0.000000
    6   -3    3    1    3    0.003125   -0.000000
    6   -3    3    2    3   -0.001201    0.000000
    6   -3    3    3    3    0.001366   -0.000000
    6   -3    3    4    3   -0.000053    0.000000
    6   -3    3    5    3   -0.000872    0.000000
    6   -3    3    6    3    0.000623    0.000000
    6   -3    3    7    3   -0.000005   -0.000000
    6   -3    3    8    3   -0.000051   -0.000000
    6   -3    3    9    3   -0.000007    0.000000
    6   -3    3    1    4    0.000051   -0.000000
    6   -3    3    2    4   -0.000832    0.000000
    6   -3    3    3    4   -0.000833   -0.000000
    6   -3    3    4    4   -0.004940   -0.000000
    6   -3    3    5    4    0.000052   -0.000000
    6   -3    3    6    4    0.000175   -0.000000
    6   -3    3    7    4    0.000169    0.000000
    6   -3    3    8    4    0.004035    0.000000
    6   -3    3    9    4    0.000169    0.000000
    6   -3    3    1    5   -0.001201   -0.000000
    6   -3    3    2    5    0.001709    0.000000
    6   -3    3    3    5    0.000547   -0.000000
    6   -3    3    4    5    0.000833    0.000000
    6   -3    3    5    5    0.001367    0.000000
    6   -3    3    6    5    0.000305    0.000000
    6   -3    3    7    5   -0.000002   -0.000000
    6   -3    3    8    5    0.000832   -0.000000
    6   -3    3    9    5   -0.000004    0.000000
    6   -3    3    1    6   -0.000623   -0.000000
    6   -3    3    2    6   -0.000305   -0.000000
    6   -3    3    3    6   -0.000305   -0.000000
    6   -3    3    4    6    0.000169    0.000000
    6   -3    3    5    6   -0.000623   -0.000000
    6   -3    3    6    6   -0.000220   -0.000000
    6   -3    3    7    6    0.000001   -0.000000
    6   -3    3    8    6    0.000175   -0.000000
    6   -3    3    9    6    0.000001    0.000000
    6   -3    3    1    7    0.000005    0.000000
    6   -3    3    2    7    0.000002    0.000000
    6   -3    3    3    7    0.000002    0.000000
    6   -3    3    4    7   -0.000172   -0.000000
    6   -3    3    5    7    0.000005    0.000000
    6   -3    3    6    7    0.000001   -0.000000
    6   -3    3    7    7   -0.000137    0.000000
    6   -3    3    8    7    0.000169    0.000000
    6   -3    3    9    7    0.000040    0.000000
    6   -3    3    1    8    0.000053    0.000000
    6   -3    3    2    8   -0.000833   -0.000000
    6   -3    3    3    8   -0.000832    0.000000
    6   -3    3    4    8    0.004035   -0.000000
    6   -3    3    5    8    0.000052    0.000000
    6   -3    3    6    8    0.000169    0.000000
    6   -3    3    7    8   -0.000172   -0.000000
    6   -3    3    8    8   -0.004940   -0.000000
    6   -3    3    9    8   -0.000173   -0.000000
    6   -3    3    1    9    0.000007    0.000000
    6   -3    3    2    9    0.000004   -0.000000
    6   -3    3    3    9    0.000004   -0.000000
    6   -3    3    4    9   -0.000173   -0.000000
    6   -3    3    5    9    0.000007   -0.000000
    6   -3    3    6    9    0.000001    0.000000
    6   -3    3    7    9    0.000040    0.000000
    6   -3    3    8    9    0.000169    0.000000
    6   -3    3    9    9   -0.000137    0.000000
    6   -2    4    1    1    0.004545    0.000000
    6   -2    4    2    1   -0.000320   -0.000000
    6   -2    4    3    1    0.004815    0.000000
    6   -2    4    4    1    0.000520   -0.000000
    6   -2    4    5    1    0.000320   -0.000000
    6   -2    4    6    1    0.000000    0.000000
    6   -2    4    7    1    0.000000   -0.000000
    6   -2    4    8    1    0.000520   -0.000000
    6   -2    4    9    1   -0.000000   -0.000000
    6   -2    4    1    2    0.000520   -0.000000
    6   -2    4    2    2    0.002856   -0.000000
    6   -2    4    3    2    0.000320   -0.000000
    6   -2    4    4    2   -0.000288    0.000000
    6   -2    4    5    2    0.003493   -0.000000
    6   -2    4    6    2   -0.000473    0.000000
    6   -2    4    7    2    0.000004   -0.000000
    6   -2    4    8    2   -0.000288   -0.000000
    6   -2    4    9    2    0.000006    0.000000
    6   -2    4    1    3    0.004815    0.000000
    6   -2    4    2    3   -0.000520   -0.000000
    6   -2    4    3    3    0.004545    0.000000
    6   -2    4    4    3    0.000320    0.000000
    6   -2    4    5    3    0.000520   -0.000000
    6   -2    4    6    3    0.000000    0.000000
    6   -2    4    7    3    0.000000   -0.000000
    6   -2    4    8    3    0.000320    0.000000
    6   -2    4    9    3   -0.000000   -0.000000
    6   -2    4    1    4   -0.000320    0.000000
    6   -2    4    2    4   -0.000288   -0.000000
    6   -2    4    3    4   -0.000520   -0.000000
    6   -2    4    4    4    0.002856    0.000000
    6   -2    4    5    4    0.000288    0.000000
    6   -2    4    6    4    0.000006   -0.000000
    6   -2    4    7    4   -0.000000    0.000000
    6   -2    4    8    4   -0.003493   -0.000000
    6   -2    4    9    4    0.000474    0.000000
    6   -2    4    1    5   -0.000520   -0.000000
    6   -2    4    2    5    0.003493    0.000000
    6   -2    4    3    5   -0.000320    0.000000
    6   -2    4    4    5    0.000288    0.000000
    6   -2    4    5    5    0.002856   -0.000000
    6   -2    4    6    5   -0.000474    0.000000
    6   -2    4    7    5    0.000004   -0.000000
    6   -2    4    8    5    0.000288   -0.000000
    6   -2    4    9    5    0.000006    0.000000
    6   -2    4    1    6   -0.000000   -0.000000
    6   -2    4    2    6    0.000474   -0.000000
    6   -2    4    3    6   -0.000000   -0.000000
    6   -2    4    4    6   -0.000005   -0.000000
    6   -2    4    5    6    0.000473   -0.000000
    6   -2    4    6    6    0.000018    0.000000
    6   -2    4    7    6   -0.000001   -0.000000
    6   -2    4    8    6    0.000006    0.000000
    6   -2    4    9    6   -0.000000   -0.000000
    6   -2    4    1    7   -0.000000    0.000000
    6   -2    4    2    7   -0.000004    0.000000
    6   -2    4    3    7   -0.000000    0.000000
    6   -2    4    4    7    0.000000   -0.000000
    6   -2    4    5    7   -0.000004    0.000000
    6   -2    4    6    7   -0.000001   -0.000000
    6   -2    4    7    7   -0.000055    0.000000
    6   -2    4    8    7   -0.000000    0.000000
    6   -2    4    9    7   -0.000000   -0.000000
    6   -2    4    1    8   -0.000320    0.000000
    6   -2    4    2    8   -0.000288   -0.000000
    6   -2    4    3    8   -0.000520   -0.000000
    6   -2    4    4    8   -0.003493    0.000000
    6   -2    4    5    8    0.000288   -0.000000
    6   -2    4    6    8   -0.000005    0.000000
    6   -2    4    7    8    0.000000   -0.000000
    6   -2    4    8    8    0.002856    0.000000
    6   -2    4    9    8   -0.000473   -0.000000
    6   -2    4    1    9    0.000000   -0.000000
    6   -2    4    2    9   -0.000006   -0.000000
    6   -2    4    3    9    0.000000   -0.000000
    6   -2    4    4    9   -0.000473   -0.000000
    6   -2    4    5    9   -0.000006   -0.000000
    6   -2    4    6    9   -0.000000    0.000000
    6   -2    4    7    9   -0.000000   -0.000000
    6   -2    4    8    9    0.000474    0.000000
    6   -2    4    9    9    0.000018    0.000000
