
     Program PWSCF v.7.2 starts on 13Mar2024 at 17:24:26 

     This program is part of the open-source Quantum ESPRESSO suite
     for quantum simulation of materials; please cite
         "P. Giannozzi et al., J. Phys.:Condens. Matter 21 395502 (2009);
         "P. Giannozzi et al., J. Phys.:Condens. Matter 29 465901 (2017);
         "P. Giannozzi et al., J. Chem. Phys. 152 154105 (2020);
          URL http://www.quantum-espresso.org", 
     in publications or presentations arising from this work. More details at
     http://www.quantum-espresso.org/quote

     Parallel version (MPI & OpenMP), running on       4 processor cores
     Number of MPI processes:                 4
     Threads/MPI process:                     1

     MPI processes distributed on     1 nodes
     164477 MiB available memory on the printing compute node when the environment starts

     Reading input from iron.scf
     Message from routine read_cards :
     DEPRECATED: no units specified in ATOMIC_POSITIONS card
     Message from routine read_cards :
     ATOMIC_POSITIONS: units set to alat

     Current dimensions of program PWSCF are:
     Max number of different atomic species (ntypx) = 10
     Max number of k-points (npk) =  40000
     Max angular momentum in pseudopotentials (lmaxx) =  4
     WARNING: atomic wfc #  5 for atom typeFe has zero norm

     R & G space division:  proc/nbgrp/npool/nimage =       4
     Subspace diagonalization in iterative solution of the eigenvalue problem:
     a serial algorithm will be used


     Parallelization info
     --------------------
     sticks:   dense  smooth     PW     G-vecs:    dense   smooth      PW
     Min         333     199     60                 7666     3542     586
     Max         334     200     61                 7668     3544     587
     Sum        1335     797    241                30669    14171    2347

     Using Slab Decomposition



     bravais-lattice index     =            3
     lattice parameter (alat)  =       5.4235  a.u.
     unit-cell volume          =      79.7644 (a.u.)^3
     number of atoms/cell      =            1
     number of atomic types    =            1
     number of electrons       =         8.00
     number of Kohn-Sham states=            8
     kinetic-energy cutoff     =     120.0000  Ry
     charge density cutoff     =     800.0000  Ry
     scf convergence threshold =      1.0E-08
     mixing beta               =       0.7000
     number of iterations used =            8  plain     mixing
     Exchange-correlation=  SLA  PW   PBX  PBC
                           (   1   4   3   4   0   0   0)

     celldm(1)=   5.423500  celldm(2)=   0.000000  celldm(3)=   0.000000
     celldm(4)=   0.000000  celldm(5)=   0.000000  celldm(6)=   0.000000

     crystal axes: (cart. coord. in units of alat)
               a(1) = (   0.500000   0.500000   0.500000 )  
               a(2) = (  -0.500000   0.500000   0.500000 )  
               a(3) = (  -0.500000  -0.500000   0.500000 )  

     reciprocal axes: (cart. coord. in units 2 pi/alat)
               b(1) = (  1.000000  0.000000  1.000000 )  
               b(2) = ( -1.000000  1.000000  0.000000 )  
               b(3) = (  0.000000 -1.000000  1.000000 )  


     PseudoPot. # 1 for Fe read from file:
     pseudo/Fe.jry.pbe.UPF
     MD5 check sum: a8bb50c89a6176606a0e5b7b8e4b870c
     Pseudo is Norm-conserving + core correction, Zval =  8.0
     Generated by new atomic code, or converted to UPF format
     Using radial grid of 1165 points,  2 beta functions with: 
                l(1) =   2
                l(2) =   1

     atomic species   valence    mass     pseudopotential
        Fe1            8.00    55.85000     Fe( 1.00)

     Starting magnetic structure 
     atomic species   magnetization
        Fe1         -1.000

     48 Sym. Ops., with inversion, found



   Cartesian axes

     site n.     atom                  positions (alat units)
         1           Fe1 tau(   1) = (   0.0000000   0.0000000   0.0000000  )

     number of k points=   145  Marzari-Vanderbilt smearing, width (Ry)=  0.0200

     Number of k-points >= 100: set verbosity='high' to print them.

     Dense  grid:    30669 G-vectors     FFT dimensions: (  45,  45,  45)

     Smooth grid:    14171 G-vectors     FFT dimensions: (  36,  36,  36)

     Estimated max dynamical RAM per process >      24.40 MB

     Estimated total dynamical RAM >      97.60 MB
     Generating pointlists ...
     new r_m :   0.3572 (alat units)  1.9375 (a.u.) for type    1

     Initial potential from superposition of free atoms

     starting charge       7.9881, renormalised to       8.0000
     Starting wfcs are    9 randomized atomic wfcs

     total cpu time spent up to now is        2.6 secs

     Self-consistent Calculation

     iteration #  1     ecut=   120.00 Ry     beta= 0.70
     Davidson diagonalization with overlap
     ethr =  1.00E-02,  avg # of iterations =  4.3

     total cpu time spent up to now is        5.8 secs

     total energy              =     -59.09637199 Ry
     estimated scf accuracy    <       0.62268788 Ry

     total magnetization       =    -3.46 Bohr mag/cell
     absolute magnetization    =     3.47 Bohr mag/cell

     iteration #  2     ecut=   120.00 Ry     beta= 0.70
     Davidson diagonalization with overlap
     ethr =  7.78E-03,  avg # of iterations =  1.9

     total cpu time spent up to now is        8.1 secs

     total energy              =     -59.23384948 Ry
     estimated scf accuracy    <       0.49114234 Ry

     total magnetization       =    -2.72 Bohr mag/cell
     absolute magnetization    =     2.75 Bohr mag/cell

     iteration #  3     ecut=   120.00 Ry     beta= 0.70
     Davidson diagonalization with overlap
     ethr =  6.14E-03,  avg # of iterations =  1.3

     total cpu time spent up to now is       10.2 secs

     total energy              =     -59.35272707 Ry
     estimated scf accuracy    <       0.02605965 Ry

     total magnetization       =    -2.76 Bohr mag/cell
     absolute magnetization    =     2.84 Bohr mag/cell

     iteration #  4     ecut=   120.00 Ry     beta= 0.70
     Davidson diagonalization with overlap
     ethr =  3.26E-04,  avg # of iterations =  1.2

     total cpu time spent up to now is       12.2 secs

     total energy              =     -59.36167219 Ry
     estimated scf accuracy    <       0.00065456 Ry

     total magnetization       =    -2.41 Bohr mag/cell
     absolute magnetization    =     2.55 Bohr mag/cell

     iteration #  5     ecut=   120.00 Ry     beta= 0.70
     Davidson diagonalization with overlap
     ethr =  8.18E-06,  avg # of iterations =  3.3

     total cpu time spent up to now is       14.6 secs

     total energy              =     -59.36129864 Ry
     estimated scf accuracy    <       0.00034741 Ry

     total magnetization       =    -2.30 Bohr mag/cell
     absolute magnetization    =     2.45 Bohr mag/cell

     iteration #  6     ecut=   120.00 Ry     beta= 0.70
     Davidson diagonalization with overlap
     ethr =  4.34E-06,  avg # of iterations =  1.7

     total cpu time spent up to now is       16.9 secs

     total energy              =     -59.36262416 Ry
     estimated scf accuracy    <       0.00014493 Ry

     total magnetization       =    -2.18 Bohr mag/cell
     absolute magnetization    =     2.31 Bohr mag/cell

     iteration #  7     ecut=   120.00 Ry     beta= 0.70
     Davidson diagonalization with overlap
     ethr =  1.81E-06,  avg # of iterations =  1.1

     total cpu time spent up to now is       19.0 secs

     total energy              =     -59.36272186 Ry
     estimated scf accuracy    <       0.00000222 Ry

     total magnetization       =    -2.22 Bohr mag/cell
     absolute magnetization    =     2.35 Bohr mag/cell

     iteration #  8     ecut=   120.00 Ry     beta= 0.70
     Davidson diagonalization with overlap
     ethr =  2.77E-08,  avg # of iterations =  2.4

     total cpu time spent up to now is       21.5 secs

     total energy              =     -59.36272734 Ry
     estimated scf accuracy    <       0.00000186 Ry

     total magnetization       =    -2.21 Bohr mag/cell
     absolute magnetization    =     2.34 Bohr mag/cell

     iteration #  9     ecut=   120.00 Ry     beta= 0.70
     Davidson diagonalization with overlap
     ethr =  2.32E-08,  avg # of iterations =  1.1

     total cpu time spent up to now is       23.5 secs

     total energy              =     -59.36273043 Ry
     estimated scf accuracy    <       0.00000040 Ry

     total magnetization       =    -2.22 Bohr mag/cell
     absolute magnetization    =     2.34 Bohr mag/cell

     iteration # 10     ecut=   120.00 Ry     beta= 0.70
     Davidson diagonalization with overlap
     ethr =  5.04E-09,  avg # of iterations =  1.6

     total cpu time spent up to now is       25.6 secs

     total energy              =     -59.36273113 Ry
     estimated scf accuracy    <       0.00000004 Ry

     total magnetization       =    -2.22 Bohr mag/cell
     absolute magnetization    =     2.34 Bohr mag/cell

     iteration # 11     ecut=   120.00 Ry     beta= 0.70
     Davidson diagonalization with overlap
     ethr =  5.35E-10,  avg # of iterations =  1.1

     Magnetic moment per site  (integrated on atomic sphere of radius R)
     atom   1 (R=0.357)  charge=  6.4968  magn= -2.2676

     total cpu time spent up to now is       27.6 secs

     End of self-consistent calculation

     Number of k-points >= 100: set verbosity='high' to print the bands.

     the Fermi energy is    12.6256 ev

!    total energy              =     -59.36273117 Ry
     estimated scf accuracy    <          7.6E-11 Ry
     smearing contrib. (-TS)   =       0.00077376 Ry
     internal energy E=F+TS    =     -59.36350493 Ry

     The total energy is F=E-TS. E is the sum of the following terms:
     one-electron contribution =       5.26153386 Ry
     hartree contribution      =       7.76052092 Ry
     xc contribution           =     -29.44079327 Ry
     ewald contribution        =     -42.94476644 Ry

     total magnetization       =    -2.22 Bohr mag/cell
     absolute magnetization    =     2.34 Bohr mag/cell

     convergence has been achieved in  11 iterations

     Writing all to output data dir ./Fe.save/

     init_run     :      1.22s CPU      2.13s WALL (       1 calls)
     electrons    :     24.26s CPU     24.92s WALL (       1 calls)

     Called by init_run:
     wfcinit      :      1.01s CPU      1.34s WALL (       1 calls)
     potinit      :      0.06s CPU      0.06s WALL (       1 calls)
     hinit0       :      0.07s CPU      0.64s WALL (       1 calls)

     Called by electrons:
     c_bands      :     19.13s CPU     19.66s WALL (      11 calls)
     sum_band     :      4.65s CPU      4.71s WALL (      11 calls)
     v_of_rho     :      0.46s CPU      0.51s WALL (      12 calls)
     mix_rho      :      0.04s CPU      0.05s WALL (      11 calls)

     Called by c_bands:
     init_us_2    :      1.04s CPU      1.05s WALL (    6670 calls)
     init_us_2:cp :      1.02s CPU      1.04s WALL (    6670 calls)
     cegterg      :     17.90s CPU     18.39s WALL (    3190 calls)

     Called by *egterg:
     cdiaghg      :      0.99s CPU      1.33s WALL (    9309 calls)
     h_psi        :     16.06s CPU     16.50s WALL (    9599 calls)
     g_psi        :      0.23s CPU      0.24s WALL (    6119 calls)

     Called by h_psi:
     h_psi:calbec :      0.35s CPU      0.36s WALL (    9599 calls)
     vloc_psi     :     15.38s CPU     15.75s WALL (    9599 calls)
     add_vuspsi   :      0.17s CPU      0.23s WALL (    9599 calls)

     General routines
     calbec       :      0.33s CPU      0.34s WALL (    9599 calls)
     fft          :      0.13s CPU      0.72s WALL (     270 calls)
     ffts         :      0.01s CPU      0.01s WALL (      46 calls)
     fftw         :     12.07s CPU     12.34s WALL (  147972 calls)
     interpolate  :      0.02s CPU      0.02s WALL (      24 calls)

     Parallel routines

     PWSCF        :     25.75s CPU     28.15s WALL


   This run was terminated on:  17:24:54  13Mar2024            

=------------------------------------------------------------------------------=
   JOB DONE.
=------------------------------------------------------------------------------=
