 
             +---------------------------------------------------+
             |                                                   |
             |                   WANNIER90                       |
             |                                                   |
             +---------------------------------------------------+
             |                                                   |
             |        Welcome to the Maximally-Localized         |
             |        Generalized Wannier Functions code         |
             |            http://www.wannier.org                 |
             |                                                   |
             |                                                   |
             |  Wannier90 Developer Group:                       |
             |    Giovanni Pizzi    (EPFL)                       |
             |    Valerio Vitale    (Cambridge)                  |
             |    David Vanderbilt  (Rutgers University)         |
             |    Nicola Marzari    (EPFL)                       |
             |    Ivo Souza         (Universidad del Pais Vasco) |
             |    Arash A. Mostofi  (Imperial College London)    |
             |    Jonathan R. Yates (University of Oxford)       |
             |                                                   |
             |  For the full list of Wannier90 3.x authors,      |
             |  please check the code documentation and the      |
             |  README on the GitHub page of the code            |
             |                                                   |
             |                                                   |
             |  Please cite                                      |
             |                                                   |
             |  [ref] "Wannier90 as a community code:            |
             |        new features and applications",            |
             |        G. Pizzi et al., J. Phys. Cond. Matt. 32,  |
             |        165902 (2020).                             |
             |        http://doi.org/10.1088/1361-648X/ab51ff    |
             |                                                   |
             |  in any publications arising from the use of      |
             |  this code. For the method please cite            |
             |                                                   |
             |  [ref] "Maximally Localized Generalised Wannier   |
             |         Functions for Composite Energy Bands"     |
             |         N. Marzari and D. Vanderbilt              |
             |         Phys. Rev. B 56 12847 (1997)              |
             |                                                   |
             |  [ref] "Maximally Localized Wannier Functions     |
             |         for Entangled Energy Bands"               |
             |         I. Souza, N. Marzari and D. Vanderbilt    |
             |         Phys. Rev. B 65 035109 (2001)             |
             |                                                   |
             |                                                   |
             | Copyright (c) 1996-2020                           |
             |        The Wannier90 Developer Group and          |
             |        individual contributors                    |
             |                                                   |
             |      Release: 3.1.0        5th March    2020      |
             |                                                   |
             | This program is free software; you can            |
             | redistribute it and/or modify it under the terms  |
             | of the GNU General Public License as published by |
             | the Free Software Foundation; either version 2 of |
             | the License, or (at your option) any later version|
             |                                                   |
             | This program is distributed in the hope that it   |
             | will be useful, but WITHOUT ANY WARRANTY; without |
             | even the implied warranty of MERCHANTABILITY or   |
             | FITNESS FOR A PARTICULAR PURPOSE. See the GNU     |
             | General Public License for more details.          |
             |                                                   |
             | You should have received a copy of the GNU General|
             | Public License along with this program; if not,   |
             | write to the Free Software Foundation, Inc.,      |
             | 675 Mass Ave, Cambridge, MA 02139, USA.           |
             |                                                   |
             +---------------------------------------------------+
             |    Execution started on 13Mar2024 at 17:31:37     |
             +---------------------------------------------------+
 
 ******************************************************************************
 * -> Using CODATA 2006 constant values                                       *
 *    (http://physics.nist.gov/cuu/Constants/index.html)                      *
 * -> Using Bohr value from CODATA                                            *
 ******************************************************************************
 

 Running in parallel on   4 CPUs

 
                                    ------
                                    SYSTEM
                                    ------
 
                              Lattice Vectors (Ang)
                    a_1     1.434996   1.434996   1.434996
                    a_2    -1.434996   1.434996   1.434996
                    a_3    -1.434996  -1.434996   1.434996
 
                   Unit Cell Volume:      11.81986  (Ang^3)
 
                        Reciprocal-Space Vectors (Ang^-1)
                    b_1     2.189269   0.000000   2.189269
                    b_2    -2.189269   2.189269   0.000000
                    b_3     0.000000  -2.189269   2.189269
  
 *----------------------------------------------------------------------------*
 |   Site       Fractional Coordinate          Cartesian Coordinate (Ang)     |
 +----------------------------------------------------------------------------+
 | Fe   1   0.00000   0.00000   0.00000   |    0.00000   0.00000   0.00000    |
 *----------------------------------------------------------------------------*
                                ------------
                                K-POINT GRID
                                ------------
  
             Grid size =  8 x  8 x  8      Total points =  512
  
  
 *---------------------------------- MAIN ------------------------------------*
 |  Number of Wannier Functions               :                 9             |
 |  Number of Objective Wannier Functions     :                 9             |
 |  Number of input Bloch states              :                14             |
 |  Output verbosity (1=low, 5=high)          :                 1             |
 |  Timing Level (1=low, 5=high)              :                 1             |
 |  Optimisation (0=memory, 3=speed)          :                 3             |
 |  Length Unit                               :               Ang             |
 |  Post-processing setup (write *.nnkp)      :                 F             |
 |  Using Gamma-only branch of algorithms     :                 F             |
 *----------------------------------------------------------------------------*
 *------------------------------- WANNIERISE ---------------------------------*
 |  Total number of iterations                :               400             |
 |  Number of CG steps before reset           :                 5             |
 |  Trial step length for line search         :             2.000             |
 |  Convergence tolerence                     :         0.100E-09             |
 |  Convergence window                        :                -1             |
 |  Iterations between writing output         :                 1             |
 |  Iterations between backing up to disk     :               100             |
 |  Write r^2_nm to file                      :                 F             |
 |  Write xyz WF centres to file              :                 T             |
 |  Write on-site energies <0n|H|0n> to file  :                 F             |
 |  Use guiding centre to control phases      :                 F             |
 |  Use phases for initial projections        :                 F             |
 *----------------------------------------------------------------------------*
 *------------------------------- DISENTANGLE --------------------------------*
 |  Using band disentanglement                :                 T             |
 |  Total number of iterations                :               500             |
 |  Mixing ratio                              :             1.000             |
 |  Convergence tolerence                     :         1.000E-10             |
 |  Convergence window                        :                 3             |
 *----------------------------------------------------------------------------*
 *-------------------------------- PLOTTING ----------------------------------*
 |  Plotting interpolated bandstructure       :                 T             |
 |   Number of K-path sections                :                 9             |
 |   Divisions along first K-path section     :               100             |
 |   Output format                            :           gnuplot             |
 |   Output mode                              :               s-k             |
 *----------------------------------------------------------------------------*
 |   K-space path sections:                                                   |
 |    From: G       0.000  0.000  0.000     To: H       0.500 -0.500 -0.500   |
 |    From: H       0.500 -0.500 -0.500     To: P       0.750  0.250 -0.250   |
 |    From: P       0.750  0.250 -0.250     To: N       0.500  0.000 -0.500   |
 |    From: N       0.500  0.000 -0.500     To: G       0.000  0.000  0.000   |
 |    From: G       0.000  0.000  0.000     To: H       0.500  0.500  0.500   |
 |    From: H       0.500  0.500  0.500     To: N       0.500  0.000  0.000   |
 |    From: N       0.500  0.000  0.000     To: G       0.000  0.000  0.000   |
 |    From: G       0.000  0.000  0.000     To: P       0.750  0.250 -0.250   |
 |    From: P       0.750  0.250 -0.250     To: N       0.500  0.000  0.000   |
 *----------------------------------------------------------------------------*
 |  Plotting Hamiltonian in WF basis          :                 T             |
 *----------------------------------------------------------------------------*
 Time to read parameters        0.074 (sec)

 *---------------------------------- K-MESH ----------------------------------*
 +----------------------------------------------------------------------------+
 |                    Distance to Nearest-Neighbour Shells                    |
 |                    ------------------------------------                    |
 |          Shell             Distance (Ang^-1)          Multiplicity         |
 |          -----             -----------------          ------------         |
 |             1                   0.387012                     12            |
 |             2                   0.547317                      6            |
 |             3                   0.670324                     24            |
 |             4                   0.774023                     12            |
 |             5                   0.865384                     24            |
 |             6                   0.947981                      8            |
 |             7                   1.023937                     48            |
 |             8                   1.094634                      6            |
 |             9                   1.161035                     36            |
 |            10                   1.223838                     24            |
 |            11                   1.283573                     24            |
 |            12                   1.340648                     24            |
 |            13                   1.395391                     72            |
 |            14                   1.498890                     48            |
 |            15                   1.548047                     12            |
 |            16                   1.595690                     48            |
 |            17                   1.641952                     30            |
 |            18                   1.686945                     72            |
 |            19                   1.730769                     24            |
 |            20                   1.773510                     48            |
 |            21                   1.815246                     24            |
 |            22                   1.856043                     48            |
 |            23                   1.895962                      8            |
 |            24                   1.935059                     84            |
 |            25                   1.973380                     24            |
 |            26                   2.010972                     96            |
 |            27                   2.047873                     48            |
 |            28                   2.084122                     24            |
 |            29                   2.154790                     96            |
 |            30                   2.189269                      6            |
 |            31                   2.223213                     96            |
 |            32                   2.256647                     48            |
 |            33                   2.289592                     48            |
 |            34                   2.322070                     36            |
 |            35                   2.354100                    120            |
 |            36                   2.385700                     24            |
 +----------------------------------------------------------------------------+
 | The b-vectors are chosen automatically                                     |
 | The following shells are used:   1                                         |
 +----------------------------------------------------------------------------+
 |                        Shell   # Nearest-Neighbours                        |
 |                        -----   --------------------                        |
 |                          1              12                                 |
 +----------------------------------------------------------------------------+
 | Completeness relation is fully satisfied [Eq. (B1), PRB 56, 12847 (1997)]  |
 +----------------------------------------------------------------------------+
 |                  b_k Vectors (Ang^-1) and Weights (Ang^2)                  |
 |                  ----------------------------------------                  |
 |            No.         b_k(x)      b_k(y)      b_k(z)        w_b           |
 |            ---        --------------------------------     --------        |
 |             1         0.000000   -0.273659    0.273659     1.669136        |
 |             2        -0.273659    0.273659    0.000000     1.669136        |
 |             3        -0.273659    0.000000    0.273659     1.669136        |
 |             4         0.273659    0.000000    0.273659     1.669136        |
 |             5         0.000000    0.273659    0.273659     1.669136        |
 |             6         0.000000    0.273659   -0.273659     1.669136        |
 |             7         0.273659    0.273659    0.000000     1.669136        |
 |             8         0.273659   -0.273659    0.000000     1.669136        |
 |             9         0.273659    0.000000   -0.273659     1.669136        |
 |            10        -0.273659    0.000000   -0.273659     1.669136        |
 |            11        -0.273659   -0.273659    0.000000     1.669136        |
 |            12         0.000000   -0.273659   -0.273659     1.669136        |
 +----------------------------------------------------------------------------+
 |                           b_k Directions (Ang^-1)                          |
 |                           -----------------------                          |
 |            No.           x           y           z                         |
 |            ---        --------------------------------                     |
 |             1         0.000000   -0.273659    0.273659                     |
 |             2        -0.273659    0.273659    0.000000                     |
 |             3        -0.273659    0.000000    0.273659                     |
 |             4         0.273659    0.000000    0.273659                     |
 |             5         0.000000    0.273659    0.273659                     |
 |             6         0.273659    0.273659    0.000000                     |
 +----------------------------------------------------------------------------+
  
 Time to get kmesh              0.402 (sec)
 *============================================================================*
 |                              MEMORY ESTIMATE                               |
 |         Maximum RAM allocated during each phase of the calculation         |
 *============================================================================*
 |                        Disentanglement           29.03 Mb                  |
 |                            Wannierise:           21.16 Mb                  |
 |                          plot_wannier:           21.16 Mb                  |
 *----------------------------------------------------------------------------*
  
 Starting a new Wannier90 calculation ...


 Reading overlaps from iron_up.mmn    :  Created on 13Mar2024 at 17:28:46

 Reading projections from iron_up.amn :  Created on 13Mar2024 at 17:26:47

 Time to read overlaps          2.031 (sec)

 *------------------------------- DISENTANGLE --------------------------------*
 +----------------------------------------------------------------------------+
 |                              Energy  Windows                               |
 |                              ---------------                               |
 |                   Outer:    4.55487  to   70.00000  (eV)                   |
 |                   Inner:    4.55487  to   30.00000  (eV)                   |
 +----------------------------------------------------------------------------+
   Number of target bands to extract:    9

                   Unitarised projection of Wannier functions                  
                   ------------------------------------------                  
   A_mn = <psi_m|g_n> --> S = A.A^+ --> U = S^-1/2.A
   In dis_project... done
   Using an inner window (linner = T)
   In dis_proj_froz... done

                   Extraction of optimally-connected subspace                  
                   ------------------------------------------                  
 +---------------------------------------------------------------------+<-- DIS
 |  Iter     Omega_I(i-1)      Omega_I(i)      Delta (frac.)    Time   |<-- DIS
 +---------------------------------------------------------------------+<-- DIS
       1       7.84571810       6.81226972       1.517E-01      0.00    <-- DIS
       2       6.66789176       6.34548512       5.081E-02      0.02    <-- DIS
       3       6.28656885       6.14805382       2.253E-02      0.04    <-- DIS
       4       6.12063252       6.05469013       1.089E-02      0.06    <-- DIS
       5       6.04097130       6.00740316       5.588E-03      0.07    <-- DIS
       6       6.00014319       5.98213961       3.010E-03      0.09    <-- DIS
       7       5.97813112       5.96809187       1.682E-03      0.11    <-- DIS
       8       5.96580967       5.96005390       9.657E-04      0.13    <-- DIS
       9       5.95872657       5.95536304       5.648E-04      0.14    <-- DIS
      10       5.95457987       5.95258895       3.345E-04      0.16    <-- DIS
      11       5.95212241       5.95093390       1.997E-04      0.18    <-- DIS
      12       5.95065422       5.94994074       1.199E-04      0.20    <-- DIS
      13       5.94977237       5.94934246       7.226E-05      0.22    <-- DIS
      14       5.94924083       5.94898114       4.365E-05      0.23    <-- DIS
      15       5.94891967       5.94876256       2.641E-05      0.25    <-- DIS
      16       5.94872533       5.94863016       1.600E-05      0.27    <-- DIS
      17       5.94860760       5.94854991       9.699E-06      0.29    <-- DIS
      18       5.94853623       5.94850124       5.882E-06      0.30    <-- DIS
      19       5.94849294       5.94847171       3.569E-06      0.32    <-- DIS
      20       5.94846667       5.94845378       2.166E-06      0.34    <-- DIS
      21       5.94845073       5.94844290       1.315E-06      0.36    <-- DIS
      22       5.94844105       5.94843630       7.984E-07      0.38    <-- DIS
      23       5.94843517       5.94843229       4.848E-07      0.39    <-- DIS
      24       5.94843160       5.94842985       2.944E-07      0.41    <-- DIS
      25       5.94842944       5.94842837       1.788E-07      0.43    <-- DIS
      26       5.94842812       5.94842748       1.086E-07      0.45    <-- DIS
      27       5.94842732       5.94842693       6.594E-08      0.46    <-- DIS
      28       5.94842684       5.94842660       4.005E-08      0.48    <-- DIS
      29       5.94842654       5.94842640       2.432E-08      0.50    <-- DIS
      30       5.94842636       5.94842628       1.477E-08      0.52    <-- DIS
      31       5.94842625       5.94842620       8.973E-09      0.54    <-- DIS
      32       5.94842619       5.94842616       5.450E-09      0.55    <-- DIS
      33       5.94842615       5.94842613       3.310E-09      0.57    <-- DIS
      34       5.94842612       5.94842611       2.011E-09      0.59    <-- DIS
      35       5.94842611       5.94842610       1.221E-09      0.61    <-- DIS
      36       5.94842610       5.94842610       7.418E-10      0.62    <-- DIS
      37       5.94842609       5.94842609       4.506E-10      0.64    <-- DIS
      38       5.94842609       5.94842609       2.737E-10      0.66    <-- DIS
      39       5.94842609       5.94842609       1.662E-10      0.68    <-- DIS
      40       5.94842609       5.94842609       1.010E-10      0.70    <-- DIS
      41       5.94842609       5.94842609       6.133E-11      0.71    <-- DIS
      42       5.94842609       5.94842609       3.725E-11      0.73    <-- DIS
      43       5.94842609       5.94842609       2.263E-11      0.75    <-- DIS

             <<<      Delta < 1.000E-10  over  3 iterations     >>>
             <<< Disentanglement convergence criteria satisfied >>>

        Final Omega_I     5.94842609 (Ang^2)

 +----------------------------------------------------------------------------+

 Time to disentangle bands      0.879 (sec)

 Writing checkpoint file iron_up.chk... done

 
 *------------------------------- WANNIERISE ---------------------------------*
 +--------------------------------------------------------------------+<-- CONV
 | Iter  Delta Spread     RMS Gradient      Spread (Ang^2)      Time  |<-- CONV
 +--------------------------------------------------------------------+<-- CONV
 
 ------------------------------------------------------------------------------
 Initial State
  WF centre and spread    1  ( -0.000000,  0.000000, -0.000000 )     2.24189605
  WF centre and spread    2  (  0.000000, -0.000000, -0.000000 )     2.32620067
  WF centre and spread    3  ( -0.000000, -0.000000,  0.000000 )     2.32620069
  WF centre and spread    4  (  0.000000, -0.000000, -0.000000 )     2.32620064
  WF centre and spread    5  ( -0.000000,  0.000000, -0.000000 )     0.54382074
  WF centre and spread    6  (  0.000000, -0.000000,  0.000000 )     0.51804929
  WF centre and spread    7  ( -0.000000,  0.000000,  0.000000 )     0.51804929
  WF centre and spread    8  ( -0.000000, -0.000000, -0.000000 )     0.54382074
  WF centre and spread    9  (  0.000000, -0.000000, -0.000000 )     0.51804929
  Sum of centres and spreads (  0.000000, -0.000000, -0.000000 )    11.86228741
 
      0     0.119E+02     0.0000000000       11.8622874109       0.87  <-- CONV
        O_D=      0.0000000 O_OD=      5.9138613 O_TOT=     11.8622874 <-- SPRD
 ------------------------------------------------------------------------------
 Cycle:      1
  WF centre and spread    1  ( -0.000000,  0.000000,  0.000000 )     1.87287779
  WF centre and spread    2  (  0.000000, -0.000000, -0.000000 )     2.24910751
  WF centre and spread    3  ( -0.000000, -0.000000,  0.000000 )     2.24906322
  WF centre and spread    4  (  0.000000, -0.000000, -0.000000 )     2.24906316
  WF centre and spread    5  ( -0.000000,  0.000000, -0.000000 )     0.51078331
  WF centre and spread    6  (  0.000000, -0.000000, -0.000000 )     0.45240051
  WF centre and spread    7  (  0.000000,  0.000000,  0.000000 )     0.45240051
  WF centre and spread    8  ( -0.000000, -0.000000, -0.000000 )     0.51078359
  WF centre and spread    9  (  0.000000,  0.000000, -0.000000 )     0.45239960
  Sum of centres and spreads (  0.000000, -0.000000, -0.000000 )    10.99887920
 
      1    -0.863E+00     0.2226907822       10.9988791958       0.90  <-- CONV
        O_D=      0.0000000 O_OD=      5.0504531 O_TOT=     10.9988792 <-- SPRD
 Delta: O_D=  0.8055303E-11 O_OD= -0.8634082E+00 O_TOT= -0.8634082E+00 <-- DLTA
 ------------------------------------------------------------------------------
 Cycle:      2
  WF centre and spread    1  (  0.000000,  0.000000,  0.000000 )     1.70814757
  WF centre and spread    2  (  0.000000, -0.000000, -0.000000 )     2.20367287
  WF centre and spread    3  ( -0.000000, -0.000000,  0.000000 )     2.20366637
  WF centre and spread    4  (  0.000000, -0.000000, -0.000000 )     2.20366632
  WF centre and spread    5  ( -0.000000,  0.000000,  0.000000 )     0.50408829
  WF centre and spread    6  (  0.000000, -0.000000, -0.000000 )     0.43570957
  WF centre and spread    7  (  0.000000,  0.000000,  0.000000 )     0.43570957
  WF centre and spread    8  ( -0.000000, -0.000000, -0.000000 )     0.50408608
  WF centre and spread    9  (  0.000000,  0.000000, -0.000000 )     0.43570959
  Sum of centres and spreads (  0.000000, -0.000000, -0.000000 )    10.63445622
 
      2    -0.364E+00     0.2684159490       10.6344562183       0.92  <-- CONV
        O_D=      0.0000000 O_OD=      4.6860301 O_TOT=     10.6344562 <-- SPRD
 Delta: O_D= -0.6696585E-11 O_OD= -0.3644230E+00 O_TOT= -0.3644230E+00 <-- DLTA
 ------------------------------------------------------------------------------
 Cycle:      3
  WF centre and spread    1  (  0.000000,  0.000000,  0.000000 )     1.68473667
  WF centre and spread    2  (  0.000000, -0.000000, -0.000000 )     2.19488845
  WF centre and spread    3  ( -0.000000, -0.000000,  0.000000 )     2.19489121
  WF centre and spread    4  (  0.000000, -0.000000, -0.000000 )     2.19489116
  WF centre and spread    5  (  0.000000,  0.000000,  0.000000 )     0.49882708
  WF centre and spread    6  (  0.000000, -0.000000, -0.000000 )     0.43210148
  WF centre and spread    7  (  0.000000,  0.000000,  0.000000 )     0.43210148
  WF centre and spread    8  (  0.000000,  0.000000,  0.000000 )     0.49882595
  WF centre and spread    9  (  0.000000, -0.000000,  0.000000 )     0.43210220
  Sum of centres and spreads (  0.000000, -0.000000, -0.000000 )    10.56336568
 
      3    -0.711E-01     0.1139587221       10.5633656812       0.95  <-- CONV
        O_D=      0.0000000 O_OD=      4.6149396 O_TOT=     10.5633657 <-- SPRD
 Delta: O_D= -0.1036625E-11 O_OD= -0.7109054E-01 O_TOT= -0.7109054E-01 <-- DLTA
 ------------------------------------------------------------------------------
 Cycle:      4
  WF centre and spread    1  (  0.000000,  0.000000,  0.000000 )     1.68394252
  WF centre and spread    2  (  0.000000, -0.000000, -0.000000 )     2.19173239
  WF centre and spread    3  ( -0.000000, -0.000000,  0.000000 )     2.19173025
  WF centre and spread    4  (  0.000000, -0.000000, -0.000000 )     2.19173020
  WF centre and spread    5  (  0.000000,  0.000000,  0.000000 )     0.49586033
  WF centre and spread    6  (  0.000000, -0.000000, -0.000000 )     0.43162249
  WF centre and spread    7  (  0.000000,  0.000000,  0.000000 )     0.43162248
  WF centre and spread    8  (  0.000000,  0.000000,  0.000000 )     0.49586020
  WF centre and spread    9  (  0.000000,  0.000000,  0.000000 )     0.43162311
  Sum of centres and spreads (  0.000000, -0.000000, -0.000000 )    10.54572397
 
      4    -0.176E-01     0.0547994714       10.5457239706       0.97  <-- CONV
        O_D=      0.0000000 O_OD=      4.5972979 O_TOT=     10.5457240 <-- SPRD
 Delta: O_D= -0.3198523E-12 O_OD= -0.1764171E-01 O_TOT= -0.1764171E-01 <-- DLTA
 ------------------------------------------------------------------------------
 Cycle:      5
  WF centre and spread    1  (  0.000000,  0.000000,  0.000000 )     1.68683153
  WF centre and spread    2  (  0.000000, -0.000000, -0.000000 )     2.18945044
  WF centre and spread    3  ( -0.000000, -0.000000,  0.000000 )     2.18945390
  WF centre and spread    4  (  0.000000, -0.000000, -0.000000 )     2.18945385
  WF centre and spread    5  (  0.000000,  0.000000,  0.000000 )     0.49332218
  WF centre and spread    6  (  0.000000, -0.000000, -0.000000 )     0.43193762
  WF centre and spread    7  (  0.000000,  0.000000,  0.000000 )     0.43193762
  WF centre and spread    8  (  0.000000,  0.000000,  0.000000 )     0.49332246
  WF centre and spread    9  (  0.000000,  0.000000,  0.000000 )     0.43193806
  Sum of centres and spreads (  0.000000, -0.000000, -0.000000 )    10.53764767
 
      5    -0.808E-02     0.0329405484       10.5376476663       1.00  <-- CONV
        O_D=      0.0000000 O_OD=      4.5892216 O_TOT=     10.5376477 <-- SPRD
 Delta: O_D=  0.1975295E-13 O_OD= -0.8076304E-02 O_TOT= -0.8076304E-02 <-- DLTA
 ------------------------------------------------------------------------------
 Cycle:      6
  WF centre and spread    1  (  0.000000,  0.000000,  0.000000 )     1.68894819
  WF centre and spread    2  (  0.000000, -0.000000, -0.000000 )     2.18807538
  WF centre and spread    3  ( -0.000000, -0.000000,  0.000000 )     2.18808785
  WF centre and spread    4  (  0.000000, -0.000000, -0.000000 )     2.18808780
  WF centre and spread    5  (  0.000000,  0.000000,  0.000000 )     0.49171880
  WF centre and spread    6  ( -0.000000, -0.000000, -0.000000 )     0.43236442
  WF centre and spread    7  (  0.000000,  0.000000,  0.000000 )     0.43236442
  WF centre and spread    8  (  0.000000,  0.000000,  0.000000 )     0.49171890
  WF centre and spread    9  (  0.000000,  0.000000,  0.000000 )     0.43236471
  Sum of centres and spreads (  0.000000, -0.000000, -0.000000 )    10.53373047
 
      6    -0.392E-02     0.0240591440       10.5337304665       1.03  <-- CONV
        O_D=      0.0000000 O_OD=      4.5853044 O_TOT=     10.5337305 <-- SPRD
 Delta: O_D= -0.1609529E-12 O_OD= -0.3917200E-02 O_TOT= -0.3917200E-02 <-- DLTA
 ------------------------------------------------------------------------------
 Cycle:      7
  WF centre and spread    1  (  0.000000,  0.000000,  0.000000 )     1.68893627
  WF centre and spread    2  (  0.000000, -0.000000, -0.000000 )     2.18785190
  WF centre and spread    3  ( -0.000000, -0.000000,  0.000000 )     2.18786409
  WF centre and spread    4  (  0.000000, -0.000000, -0.000000 )     2.18786404
  WF centre and spread    5  (  0.000000,  0.000000,  0.000000 )     0.49149720
  WF centre and spread    6  ( -0.000000, -0.000000, -0.000000 )     0.43240408
  WF centre and spread    7  (  0.000000,  0.000000,  0.000000 )     0.43240407
  WF centre and spread    8  (  0.000000,  0.000000,  0.000000 )     0.49149704
  WF centre and spread    9  (  0.000000,  0.000000,  0.000000 )     0.43240436
  Sum of centres and spreads (  0.000000, -0.000000, -0.000000 )    10.53272304
 
      7    -0.101E-02     0.0149421759       10.5327230428       1.05  <-- CONV
        O_D=      0.0000000 O_OD=      4.5842970 O_TOT=     10.5327230 <-- SPRD
 Delta: O_D= -0.9411642E-13 O_OD= -0.1007424E-02 O_TOT= -0.1007424E-02 <-- DLTA
 ------------------------------------------------------------------------------
 Cycle:      8
  WF centre and spread    1  (  0.000000,  0.000000,  0.000000 )     1.68908645
  WF centre and spread    2  (  0.000000, -0.000000, -0.000000 )     2.18771473
  WF centre and spread    3  ( -0.000000, -0.000000,  0.000000 )     2.18772653
  WF centre and spread    4  (  0.000000, -0.000000, -0.000000 )     2.18772648
  WF centre and spread    5  (  0.000000,  0.000000,  0.000000 )     0.49131086
  WF centre and spread    6  ( -0.000000, -0.000000, -0.000000 )     0.43248688
  WF centre and spread    7  (  0.000000,  0.000000,  0.000000 )     0.43248688
  WF centre and spread    8  (  0.000000,  0.000000,  0.000000 )     0.49131048
  WF centre and spread    9  (  0.000000,  0.000000,  0.000000 )     0.43248716
  Sum of centres and spreads (  0.000000, -0.000000, -0.000000 )    10.53233645
 
      8    -0.387E-03     0.0079203653       10.5323364528       1.08  <-- CONV
        O_D=      0.0000000 O_OD=      4.5839104 O_TOT=     10.5323365 <-- SPRD
 Delta: O_D= -0.1275047E-12 O_OD= -0.3865900E-03 O_TOT= -0.3865900E-03 <-- DLTA
 ------------------------------------------------------------------------------
 Cycle:      9
  WF centre and spread    1  (  0.000000,  0.000000,  0.000000 )     1.68933756
  WF centre and spread    2  (  0.000000, -0.000000, -0.000000 )     2.18759141
  WF centre and spread    3  ( -0.000000, -0.000000,  0.000000 )     2.18760308
  WF centre and spread    4  (  0.000000, -0.000000, -0.000000 )     2.18760303
  WF centre and spread    5  (  0.000000,  0.000000,  0.000000 )     0.49121042
  WF centre and spread    6  ( -0.000000, -0.000000, -0.000000 )     0.43254801
  WF centre and spread    7  (  0.000000,  0.000000,  0.000000 )     0.43254800
  WF centre and spread    8  (  0.000000,  0.000000,  0.000000 )     0.49120995
  WF centre and spread    9  ( -0.000000,  0.000000,  0.000000 )     0.43254827
  Sum of centres and spreads (  0.000000, -0.000000, -0.000000 )    10.53219973
 
      9    -0.137E-03     0.0046955950       10.5321997265       1.10  <-- CONV
        O_D=      0.0000000 O_OD=      4.5837736 O_TOT=     10.5321997 <-- SPRD
 Delta: O_D= -0.6502798E-13 O_OD= -0.1367263E-03 O_TOT= -0.1367263E-03 <-- DLTA
 ------------------------------------------------------------------------------
 Cycle:     10
  WF centre and spread    1  (  0.000000,  0.000000,  0.000000 )     1.68966379
  WF centre and spread    2  (  0.000000, -0.000000, -0.000000 )     2.18748161
  WF centre and spread    3  ( -0.000000, -0.000000,  0.000000 )     2.18749364
  WF centre and spread    4  (  0.000000, -0.000000, -0.000000 )     2.18749359
  WF centre and spread    5  (  0.000000,  0.000000,  0.000000 )     0.49112765
  WF centre and spread    6  ( -0.000000, -0.000000, -0.000000 )     0.43258634
  WF centre and spread    7  (  0.000000,  0.000000,  0.000000 )     0.43258634
  WF centre and spread    8  (  0.000000,  0.000000,  0.000000 )     0.49112720
  WF centre and spread    9  ( -0.000000,  0.000000,  0.000000 )     0.43258660
  Sum of centres and spreads (  0.000000, -0.000000, -0.000000 )    10.53214675
 
     10    -0.530E-04     0.0028742154       10.5321467501       1.13  <-- CONV
        O_D=      0.0000000 O_OD=      4.5837207 O_TOT=     10.5321468 <-- SPRD
 Delta: O_D= -0.3267409E-13 O_OD= -0.5297642E-04 O_TOT= -0.5297642E-04 <-- DLTA
 ------------------------------------------------------------------------------
 Cycle:     11
  WF centre and spread    1  (  0.000000,  0.000000,  0.000000 )     1.68990151
  WF centre and spread    2  (  0.000000, -0.000000, -0.000000 )     2.18742663
  WF centre and spread    3  ( -0.000000, -0.000000,  0.000000 )     2.18743940
  WF centre and spread    4  (  0.000000, -0.000000, -0.000000 )     2.18743935
  WF centre and spread    5  (  0.000000,  0.000000,  0.000000 )     0.49104475
  WF centre and spread    6  ( -0.000000, -0.000000, -0.000000 )     0.43261059
  WF centre and spread    7  (  0.000000,  0.000000,  0.000000 )     0.43261059
  WF centre and spread    8  (  0.000000,  0.000000,  0.000000 )     0.49104437
  WF centre and spread    9  ( -0.000000,  0.000000,  0.000000 )     0.43261085
  Sum of centres and spreads (  0.000000, -0.000000, -0.000000 )    10.53212805
 
     11    -0.187E-04     0.0016687910       10.5321280510       1.15  <-- CONV
        O_D=      0.0000000 O_OD=      4.5837020 O_TOT=     10.5321281 <-- SPRD
 Delta: O_D= -0.3517828E-14 O_OD= -0.1869909E-04 O_TOT= -0.1869909E-04 <-- DLTA
 ------------------------------------------------------------------------------
 Cycle:     12
  WF centre and spread    1  (  0.000000,  0.000000,  0.000000 )     1.68999505
  WF centre and spread    2  (  0.000000, -0.000000, -0.000000 )     2.18740779
  WF centre and spread    3  ( -0.000000, -0.000000,  0.000000 )     2.18742120
  WF centre and spread    4  (  0.000000, -0.000000, -0.000000 )     2.18742115
  WF centre and spread    5  (  0.000000,  0.000000,  0.000000 )     0.49099839
  WF centre and spread    6  ( -0.000000, -0.000000, -0.000000 )     0.43262668
  WF centre and spread    7  (  0.000000,  0.000000,  0.000000 )     0.43262668
  WF centre and spread    8  (  0.000000,  0.000000,  0.000000 )     0.49099806
  WF centre and spread    9  ( -0.000000,  0.000000,  0.000000 )     0.43262695
  Sum of centres and spreads (  0.000000, -0.000000, -0.000000 )    10.53212195
 
     12    -0.610E-05     0.0010583750       10.5321219485       1.18  <-- CONV
        O_D=      0.0000000 O_OD=      4.5836959 O_TOT=     10.5321219 <-- SPRD
 Delta: O_D= -0.2463160E-13 O_OD= -0.6102545E-05 O_TOT= -0.6102545E-05 <-- DLTA
 ------------------------------------------------------------------------------
 Cycle:     13
  WF centre and spread    1  (  0.000000,  0.000000,  0.000000 )     1.68996886
  WF centre and spread    2  (  0.000000, -0.000000, -0.000000 )     2.18740789
  WF centre and spread    3  ( -0.000000, -0.000000,  0.000000 )     2.18742165
  WF centre and spread    4  (  0.000000, -0.000000, -0.000000 )     2.18742160
  WF centre and spread    5  (  0.000000,  0.000000,  0.000000 )     0.49099911
  WF centre and spread    6  ( -0.000000, -0.000000, -0.000000 )     0.43263423
  WF centre and spread    7  (  0.000000,  0.000000,  0.000000 )     0.43263423
  WF centre and spread    8  (  0.000000,  0.000000,  0.000000 )     0.49099879
  WF centre and spread    9  ( -0.000000,  0.000000,  0.000000 )     0.43263450
  Sum of centres and spreads (  0.000000, -0.000000, -0.000000 )    10.53212085
 
     13    -0.109E-05     0.0004326350       10.5321208549       1.20  <-- CONV
        O_D=      0.0000000 O_OD=      4.5836948 O_TOT=     10.5321209 <-- SPRD
 Delta: O_D=  0.1355072E-13 O_OD= -0.1093580E-05 O_TOT= -0.1093580E-05 <-- DLTA
 ------------------------------------------------------------------------------
 Cycle:     14
  WF centre and spread    1  (  0.000000,  0.000000,  0.000000 )     1.68993537
  WF centre and spread    2  (  0.000000, -0.000000, -0.000000 )     2.18740982
  WF centre and spread    3  ( -0.000000, -0.000000,  0.000000 )     2.18742407
  WF centre and spread    4  (  0.000000, -0.000000, -0.000000 )     2.18742402
  WF centre and spread    5  (  0.000000,  0.000000,  0.000000 )     0.49099785
  WF centre and spread    6  ( -0.000000, -0.000000, -0.000000 )     0.43264380
  WF centre and spread    7  (  0.000000,  0.000000,  0.000000 )     0.43264380
  WF centre and spread    8  (  0.000000,  0.000000,  0.000000 )     0.49099755
  WF centre and spread    9  ( -0.000000,  0.000000,  0.000000 )     0.43264407
  Sum of centres and spreads ( -0.000000, -0.000000, -0.000000 )    10.53212035
 
     14    -0.509E-06     0.0002792343       10.5321203461       1.23  <-- CONV
        O_D=      0.0000000 O_OD=      4.5836943 O_TOT=     10.5321203 <-- SPRD
 Delta: O_D= -0.5999610E-14 O_OD= -0.5088464E-06 O_TOT= -0.5088464E-06 <-- DLTA
 ------------------------------------------------------------------------------
 Cycle:     15
  WF centre and spread    1  (  0.000000,  0.000000,  0.000000 )     1.68990047
  WF centre and spread    2  (  0.000000, -0.000000, -0.000000 )     2.18741119
  WF centre and spread    3  ( -0.000000, -0.000000,  0.000000 )     2.18742605
  WF centre and spread    4  (  0.000000, -0.000000, -0.000000 )     2.18742600
  WF centre and spread    5  (  0.000000,  0.000000,  0.000000 )     0.49099686
  WF centre and spread    6  ( -0.000000, -0.000000, -0.000000 )     0.43265422
  WF centre and spread    7  (  0.000000,  0.000000,  0.000000 )     0.43265421
  WF centre and spread    8  (  0.000000,  0.000000,  0.000000 )     0.49099656
  WF centre and spread    9  ( -0.000000,  0.000000,  0.000000 )     0.43265450
  Sum of centres and spreads ( -0.000000, -0.000000, -0.000000 )    10.53212005
 
     15    -0.298E-06     0.0001932674       10.5321200481       1.25  <-- CONV
        O_D=      0.0000000 O_OD=      4.5836940 O_TOT=     10.5321200 <-- SPRD
 Delta: O_D=  0.8508512E-14 O_OD= -0.2980111E-06 O_TOT= -0.2980111E-06 <-- DLTA
 ------------------------------------------------------------------------------
 Cycle:     16
  WF centre and spread    1  (  0.000000,  0.000000,  0.000000 )     1.68987351
  WF centre and spread    2  (  0.000000, -0.000000, -0.000000 )     2.18741049
  WF centre and spread    3  ( -0.000001, -0.000000,  0.000000 )     2.18742585
  WF centre and spread    4  (  0.000000, -0.000000, -0.000000 )     2.18742580
  WF centre and spread    5  (  0.000000,  0.000000,  0.000000 )     0.49099828
  WF centre and spread    6  ( -0.000000, -0.000000, -0.000000 )     0.43266256
  WF centre and spread    7  (  0.000000,  0.000000,  0.000000 )     0.43266255
  WF centre and spread    8  (  0.000000,  0.000000,  0.000000 )     0.49099799
  WF centre and spread    9  ( -0.000000,  0.000000,  0.000000 )     0.43266285
  Sum of centres and spreads ( -0.000000, -0.000000, -0.000000 )    10.53211989
 
     16    -0.156E-06     0.0001570053       10.5321198919       1.28  <-- CONV
        O_D=      0.0000000 O_OD=      4.5836938 O_TOT=     10.5321199 <-- SPRD
 Delta: O_D=  0.6747520E-14 O_OD= -0.1561691E-06 O_TOT= -0.1561691E-06 <-- DLTA
 ------------------------------------------------------------------------------
 Cycle:     17
  WF centre and spread    1  (  0.000000,  0.000000,  0.000000 )     1.68985791
  WF centre and spread    2  (  0.000000, -0.000000, -0.000000 )     2.18740992
  WF centre and spread    3  ( -0.000001, -0.000000,  0.000000 )     2.18742553
  WF centre and spread    4  (  0.000000, -0.000000, -0.000000 )     2.18742548
  WF centre and spread    5  (  0.000000,  0.000000,  0.000000 )     0.49100009
  WF centre and spread    6  ( -0.000000, -0.000000, -0.000000 )     0.43266693
  WF centre and spread    7  (  0.000000,  0.000000,  0.000000 )     0.43266693
  WF centre and spread    8  (  0.000000,  0.000000,  0.000000 )     0.49099980
  WF centre and spread    9  ( -0.000000,  0.000000,  0.000000 )     0.43266724
  Sum of centres and spreads ( -0.000000, -0.000000, -0.000000 )    10.53211982
 
     17    -0.679E-07     0.0001180027       10.5321198239       1.30  <-- CONV
        O_D=      0.0000000 O_OD=      4.5836937 O_TOT=     10.5321198 <-- SPRD
 Delta: O_D= -0.1668981E-13 O_OD= -0.6794617E-07 O_TOT= -0.6794619E-07 <-- DLTA
 ------------------------------------------------------------------------------
 Cycle:     18
  WF centre and spread    1  (  0.000001,  0.000000,  0.000000 )     1.68985309
  WF centre and spread    2  (  0.000000, -0.000000, -0.000001 )     2.18740953
  WF centre and spread    3  ( -0.000001, -0.000000,  0.000000 )     2.18742521
  WF centre and spread    4  (  0.000000, -0.000000, -0.000000 )     2.18742516
  WF centre and spread    5  (  0.000000,  0.000000,  0.000000 )     0.49100091
  WF centre and spread    6  ( -0.000000, -0.000000, -0.000000 )     0.43266832
  WF centre and spread    7  (  0.000000,  0.000000,  0.000000 )     0.43266831
  WF centre and spread    8  (  0.000000,  0.000000,  0.000000 )     0.49100063
  WF centre and spread    9  ( -0.000000,  0.000000,  0.000000 )     0.43266862
  Sum of centres and spreads ( -0.000000, -0.000000, -0.000000 )    10.53211979
 
     18    -0.361E-07     0.0000758627       10.5321197879       1.33  <-- CONV
        O_D=      0.0000000 O_OD=      4.5836937 O_TOT=     10.5321198 <-- SPRD
 Delta: O_D= -0.2371660E-13 O_OD= -0.3607633E-07 O_TOT= -0.3607635E-07 <-- DLTA
 ------------------------------------------------------------------------------
 Cycle:     19
  WF centre and spread    1  (  0.000001,  0.000000,  0.000001 )     1.68987002
  WF centre and spread    2  (  0.000000, -0.000000, -0.000001 )     2.18740752
  WF centre and spread    3  ( -0.000001, -0.000000,  0.000000 )     2.18742315
  WF centre and spread    4  (  0.000000, -0.000000, -0.000000 )     2.18742310
  WF centre and spread    5  (  0.000000,  0.000000,  0.000000 )     0.49099987
  WF centre and spread    6  ( -0.000000, -0.000000, -0.000000 )     0.43266551
  WF centre and spread    7  (  0.000000,  0.000000,  0.000000 )     0.43266551
  WF centre and spread    8  (  0.000000,  0.000000,  0.000000 )     0.49099957
  WF centre and spread    9  ( -0.000000,  0.000000,  0.000000 )     0.43266583
  Sum of centres and spreads ( -0.000000, -0.000000, -0.000000 )    10.53212008
 
     19     0.294E-06     0.0000562839       10.5321200817       1.35  <-- CONV
        O_D=      0.0000000 O_OD=      4.5836940 O_TOT=     10.5321201 <-- SPRD
 Delta: O_D=  0.1548721E-11 O_OD=  0.2938523E-06 O_TOT=  0.2938538E-06 <-- DLTA
 ------------------------------------------------------------------------------
 Cycle:     20
  WF centre and spread    1  (  0.000001,  0.000000,  0.000001 )     1.68987004
  WF centre and spread    2  (  0.000000, -0.000000, -0.000001 )     2.18740787
  WF centre and spread    3  ( -0.000001, -0.000000,  0.000000 )     2.18742350
  WF centre and spread    4  (  0.000000, -0.000000, -0.000000 )     2.18742345
  WF centre and spread    5  (  0.000000,  0.000000,  0.000000 )     0.49099993
  WF centre and spread    6  ( -0.000000, -0.000000, -0.000000 )     0.43266499
  WF centre and spread    7  (  0.000000,  0.000000,  0.000000 )     0.43266499
  WF centre and spread    8  (  0.000000,  0.000000,  0.000000 )     0.49099963
  WF centre and spread    9  ( -0.000000,  0.000000,  0.000000 )     0.43266531
  Sum of centres and spreads ( -0.000000, -0.000000, -0.000000 )    10.53211971
 
     20    -0.374E-06     0.0003277955       10.5321197074       1.38  <-- CONV
        O_D=      0.0000000 O_OD=      4.5836936 O_TOT=     10.5321197 <-- SPRD
 Delta: O_D= -0.1231048E-11 O_OD= -0.3743571E-06 O_TOT= -0.3743583E-06 <-- DLTA
 ------------------------------------------------------------------------------
 Cycle:     21
  WF centre and spread    1  (  0.000001,  0.000000,  0.000001 )     1.68987156
  WF centre and spread    2  (  0.000000, -0.000000, -0.000001 )     2.18740769
  WF centre and spread    3  ( -0.000001, -0.000000,  0.000000 )     2.18742333
  WF centre and spread    4  (  0.000000, -0.000000, -0.000000 )     2.18742328
  WF centre and spread    5  (  0.000000,  0.000000,  0.000000 )     0.49099995
  WF centre and spread    6  ( -0.000000, -0.000000, -0.000000 )     0.43266462
  WF centre and spread    7  (  0.000000,  0.000000,  0.000000 )     0.43266462
  WF centre and spread    8  (  0.000000,  0.000000,  0.000000 )     0.49099965
  WF centre and spread    9  ( -0.000000,  0.000000,  0.000000 )     0.43266494
  Sum of centres and spreads ( -0.000000, -0.000000, -0.000000 )    10.53211966
 
     21    -0.466E-07     0.0000970745       10.5321196607       1.40  <-- CONV
        O_D=      0.0000000 O_OD=      4.5836936 O_TOT=     10.5321197 <-- SPRD
 Delta: O_D= -0.2187509E-12 O_OD= -0.4661817E-07 O_TOT= -0.4661839E-07 <-- DLTA
 ------------------------------------------------------------------------------
 Cycle:     22
  WF centre and spread    1  (  0.000001,  0.000000,  0.000001 )     1.68987271
  WF centre and spread    2  (  0.000000, -0.000000, -0.000001 )     2.18740761
  WF centre and spread    3  ( -0.000002, -0.000000,  0.000000 )     2.18742327
  WF centre and spread    4  (  0.000000, -0.000000, -0.000000 )     2.18742322
  WF centre and spread    5  (  0.000000,  0.000000,  0.000000 )     0.49099980
  WF centre and spread    6  ( -0.000000, -0.000000, -0.000000 )     0.43266441
  WF centre and spread    7  (  0.000000,  0.000000,  0.000000 )     0.43266441
  WF centre and spread    8  (  0.000000,  0.000000,  0.000000 )     0.49099949
  WF centre and spread    9  ( -0.000000,  0.000000,  0.000000 )     0.43266473
  Sum of centres and spreads ( -0.000000, -0.000000, -0.000000 )    10.53211964
 
     22    -0.221E-07     0.0000521391       10.5321196386       1.43  <-- CONV
        O_D=      0.0000000 O_OD=      4.5836936 O_TOT=     10.5321196 <-- SPRD
 Delta: O_D= -0.7550265E-13 O_OD= -0.2214569E-07 O_TOT= -0.2214577E-07 <-- DLTA
 ------------------------------------------------------------------------------
 Cycle:     23
  WF centre and spread    1  (  0.000002,  0.000000,  0.000001 )     1.68987203
  WF centre and spread    2  (  0.000000, -0.000000, -0.000001 )     2.18740822
  WF centre and spread    3  ( -0.000002, -0.000000,  0.000000 )     2.18742396
  WF centre and spread    4  (  0.000000, -0.000000, -0.000000 )     2.18742391
  WF centre and spread    5  (  0.000000,  0.000000,  0.000000 )     0.49099927
  WF centre and spread    6  ( -0.000000, -0.000000, -0.000000 )     0.43266432
  WF centre and spread    7  (  0.000000,  0.000000,  0.000000 )     0.43266431
  WF centre and spread    8  (  0.000000,  0.000000,  0.000000 )     0.49099895
  WF centre and spread    9  ( -0.000000,  0.000000,  0.000000 )     0.43266463
  Sum of centres and spreads ( -0.000000, -0.000000, -0.000000 )    10.53211960
 
     23    -0.413E-07     0.0000409677       10.5321195973       1.46  <-- CONV
        O_D=      0.0000000 O_OD=      4.5836935 O_TOT=     10.5321196 <-- SPRD
 Delta: O_D=  0.4802181E-13 O_OD= -0.4131723E-07 O_TOT= -0.4131719E-07 <-- DLTA
 ------------------------------------------------------------------------------
 Cycle:     24
  WF centre and spread    1  (  0.000007,  0.000002,  0.000005 )     1.68984365
  WF centre and spread    2  (  0.000000, -0.000000, -0.000006 )     2.18741617
  WF centre and spread    3  ( -0.000008, -0.000000,  0.000000 )     2.18743279
  WF centre and spread    4  (  0.000000, -0.000002,  0.000000 )     2.18743274
  WF centre and spread    5  (  0.000000,  0.000000,  0.000001 )     0.49099853
  WF centre and spread    6  ( -0.000000,  0.000000, -0.000000 )     0.43266597
  WF centre and spread    7  (  0.000000,  0.000000,  0.000000 )     0.43266597
  WF centre and spread    8  (  0.000001,  0.000000,  0.000000 )     0.49099755
  WF centre and spread    9  ( -0.000000,  0.000000,  0.000000 )     0.43266630
  Sum of centres and spreads ( -0.000000, -0.000000, -0.000000 )    10.53211968
 
     24     0.853E-07     0.0000628486       10.5321196826       1.48  <-- CONV
        O_D=      0.0000000 O_OD=      4.5836936 O_TOT=     10.5321197 <-- SPRD
 Delta: O_D=  0.8701780E-11 O_OD=  0.8529036E-07 O_TOT=  0.8529906E-07 <-- DLTA
 ------------------------------------------------------------------------------
 Cycle:     25
  WF centre and spread    1  (  0.000007,  0.000002,  0.000005 )     1.68984474
  WF centre and spread    2  (  0.000000, -0.000000, -0.000006 )     2.18741423
  WF centre and spread    3  ( -0.000009, -0.000000,  0.000000 )     2.18743082
  WF centre and spread    4  (  0.000000, -0.000002,  0.000000 )     2.18743077
  WF centre and spread    5  (  0.000000,  0.000000,  0.000001 )     0.49100034
  WF centre and spread    6  ( -0.000000,  0.000000, -0.000000 )     0.43266620
  WF centre and spread    7  (  0.000000,  0.000000,  0.000000 )     0.43266619
  WF centre and spread    8  (  0.000001,  0.000000,  0.000000 )     0.49099934
  WF centre and spread    9  ( -0.000000,  0.000000,  0.000000 )     0.43266653
  Sum of centres and spreads ( -0.000000, -0.000000, -0.000000 )    10.53211914
 
     25    -0.539E-06     0.0004134871       10.5321191437       1.51  <-- CONV
        O_D=      0.0000000 O_OD=      4.5836931 O_TOT=     10.5321191 <-- SPRD
 Delta: O_D= -0.5528149E-11 O_OD= -0.5389140E-06 O_TOT= -0.5389196E-06 <-- DLTA
 ------------------------------------------------------------------------------
 Cycle:     26
  WF centre and spread    1  (  0.000008,  0.000002,  0.000006 )     1.68984645
  WF centre and spread    2  (  0.000000, -0.000000, -0.000007 )     2.18741225
  WF centre and spread    3  ( -0.000010, -0.000000,  0.000000 )     2.18742880
  WF centre and spread    4  (  0.000000, -0.000002,  0.000000 )     2.18742875
  WF centre and spread    5  (  0.000000,  0.000000,  0.000001 )     0.49100212
  WF centre and spread    6  ( -0.000000,  0.000000, -0.000000 )     0.43266640
  WF centre and spread    7  (  0.000000,  0.000000,  0.000000 )     0.43266640
  WF centre and spread    8  (  0.000001,  0.000000,  0.000000 )     0.49100111
  WF centre and spread    9  ( -0.000000,  0.000000,  0.000000 )     0.43266673
  Sum of centres and spreads ( -0.000000, -0.000000, -0.000000 )    10.53211901
 
     26    -0.134E-06     0.0001433823       10.5321190100       1.53  <-- CONV
        O_D=      0.0000000 O_OD=      4.5836929 O_TOT=     10.5321190 <-- SPRD
 Delta: O_D=  0.1083008E-12 O_OD= -0.1336650E-06 O_TOT= -0.1336648E-06 <-- DLTA
 ------------------------------------------------------------------------------
 Cycle:     27
  WF centre and spread    1  (  0.000010,  0.000002,  0.000007 )     1.68985447
  WF centre and spread    2  (  0.000000, -0.000000, -0.000009 )     2.18740916
  WF centre and spread    3  ( -0.000012, -0.000000,  0.000000 )     2.18742565
  WF centre and spread    4  (  0.000000, -0.000003,  0.000000 )     2.18742560
  WF centre and spread    5  (  0.000000,  0.000000,  0.000001 )     0.49100309
  WF centre and spread    6  ( -0.000000,  0.000000, -0.000000 )     0.43266622
  WF centre and spread    7  (  0.000000,  0.000000,  0.000000 )     0.43266622
  WF centre and spread    8  (  0.000001,  0.000000,  0.000000 )     0.49100200
  WF centre and spread    9  ( -0.000000,  0.000000,  0.000000 )     0.43266656
  Sum of centres and spreads ( -0.000000, -0.000000, -0.000000 )    10.53211896
 
     27    -0.485E-07     0.0000858420       10.5321189615       1.56  <-- CONV
        O_D=      0.0000000 O_OD=      4.5836929 O_TOT=     10.5321190 <-- SPRD
 Delta: O_D=  0.2587844E-11 O_OD= -0.4846903E-07 O_TOT= -0.4846644E-07 <-- DLTA
 ------------------------------------------------------------------------------
 Cycle:     28
  WF centre and spread    1  (  0.000011,  0.000003,  0.000008 )     1.68986025
  WF centre and spread    2  (  0.000000,  0.000000, -0.000010 )     2.18740747
  WF centre and spread    3  ( -0.000014, -0.000000,  0.000000 )     2.18742394
  WF centre and spread    4  (  0.000000, -0.000003,  0.000000 )     2.18742389
  WF centre and spread    5  (  0.000000,  0.000000,  0.000001 )     0.49100315
  WF centre and spread    6  ( -0.000000,  0.000000, -0.000000 )     0.43266596
  WF centre and spread    7  (  0.000000,  0.000000,  0.000000 )     0.43266595
  WF centre and spread    8  (  0.000001,  0.000000,  0.000000 )     0.49100203
  WF centre and spread    9  ( -0.000000,  0.000000,  0.000000 )     0.43266630
  Sum of centres and spreads ( -0.000000, -0.000000, -0.000000 )    10.53211895
 
     28    -0.127E-07     0.0001099844       10.5321189488       1.58  <-- CONV
        O_D=      0.0000000 O_OD=      4.5836929 O_TOT=     10.5321189 <-- SPRD
 Delta: O_D=  0.9967545E-12 O_OD= -0.1272817E-07 O_TOT= -0.1272717E-07 <-- DLTA
 ------------------------------------------------------------------------------
 Cycle:     29
  WF centre and spread    1  (  0.000013,  0.000003,  0.000009 )     1.68986629
  WF centre and spread    2  (  0.000000,  0.000000, -0.000011 )     2.18740608
  WF centre and spread    3  ( -0.000015, -0.000000,  0.000000 )     2.18742257
  WF centre and spread    4  (  0.000000, -0.000004,  0.000000 )     2.18742252
  WF centre and spread    5  (  0.000000,  0.000000,  0.000001 )     0.49100276
  WF centre and spread    6  ( -0.000000,  0.000000, -0.000000 )     0.43266558
  WF centre and spread    7  (  0.000000,  0.000000,  0.000000 )     0.43266558
  WF centre and spread    8  (  0.000001,  0.000000,  0.000000 )     0.49100161
  WF centre and spread    9  ( -0.000000,  0.000000,  0.000000 )     0.43266593
  Sum of centres and spreads ( -0.000000, -0.000000, -0.000000 )    10.53211892
 
     29    -0.247E-07     0.0000905574       10.5321189241       1.61  <-- CONV
        O_D=      0.0000000 O_OD=      4.5836928 O_TOT=     10.5321189 <-- SPRD
 Delta: O_D=  0.1921024E-11 O_OD= -0.2471392E-07 O_TOT= -0.2471200E-07 <-- DLTA
 ------------------------------------------------------------------------------
 Cycle:     30
  WF centre and spread    1  (  0.000018,  0.000004,  0.000012 )     1.68988216
  WF centre and spread    2  (  0.000000,  0.000000, -0.000015 )     2.18740372
  WF centre and spread    3  ( -0.000021, -0.000000,  0.000000 )     2.18742027
  WF centre and spread    4  (  0.000000, -0.000005,  0.000000 )     2.18742022
  WF centre and spread    5  (  0.000001,  0.000000,  0.000002 )     0.49100029
  WF centre and spread    6  ( -0.000000,  0.000000, -0.000000 )     0.43266429
  WF centre and spread    7  (  0.000000,  0.000000,  0.000000 )     0.43266429
  WF centre and spread    8  (  0.000002,  0.000000,  0.000000 )     0.49099902
  WF centre and spread    9  ( -0.000000,  0.000000,  0.000000 )     0.43266464
  Sum of centres and spreads ( -0.000001, -0.000000, -0.000001 )    10.53211889
 
     30    -0.357E-07     0.0000730471       10.5321188884       1.63  <-- CONV
        O_D=      0.0000000 O_OD=      4.5836928 O_TOT=     10.5321189 <-- SPRD
 Delta: O_D=  0.8028311E-11 O_OD= -0.3568856E-07 O_TOT= -0.3568054E-07 <-- DLTA
 ------------------------------------------------------------------------------
 Cycle:     31
  WF centre and spread    1  (  0.000019,  0.000004,  0.000013 )     1.68987893
  WF centre and spread    2  (  0.000000,  0.000000, -0.000016 )     2.18740493
  WF centre and spread    3  ( -0.000022, -0.000000,  0.000000 )     2.18742149
  WF centre and spread    4  (  0.000000, -0.000005,  0.000000 )     2.18742144
  WF centre and spread    5  (  0.000001,  0.000000,  0.000002 )     0.49099995
  WF centre and spread    6  ( -0.000000,  0.000000, -0.000000 )     0.43266436
  WF centre and spread    7  (  0.000000,  0.000000,  0.000000 )     0.43266436
  WF centre and spread    8  (  0.000002,  0.000000,  0.000000 )     0.49099866
  WF centre and spread    9  ( -0.000000,  0.000000,  0.000000 )     0.43266471
  Sum of centres and spreads ( -0.000001, -0.000000, -0.000001 )    10.53211882
 
     31    -0.699E-07     0.0001375410       10.5321188185       1.66  <-- CONV
        O_D=      0.0000000 O_OD=      4.5836927 O_TOT=     10.5321188 <-- SPRD
 Delta: O_D=  0.2105344E-11 O_OD= -0.6989732E-07 O_TOT= -0.6989522E-07 <-- DLTA
 ------------------------------------------------------------------------------
 Cycle:     32
  WF centre and spread    1  (  0.000019,  0.000004,  0.000013 )     1.68987892
  WF centre and spread    2  (  0.000000,  0.000000, -0.000016 )     2.18740493
  WF centre and spread    3  ( -0.000022, -0.000000,  0.000000 )     2.18742149
  WF centre and spread    4  (  0.000000, -0.000005,  0.000000 )     2.18742144
  WF centre and spread    5  (  0.000001,  0.000000,  0.000002 )     0.49099995
  WF centre and spread    6  ( -0.000000,  0.000000, -0.000000 )     0.43266436
  WF centre and spread    7  (  0.000000,  0.000000,  0.000000 )     0.43266436
  WF centre and spread    8  (  0.000002,  0.000000,  0.000000 )     0.49099866
  WF centre and spread    9  ( -0.000000,  0.000000,  0.000000 )     0.43266471
  Sum of centres and spreads ( -0.000001, -0.000000, -0.000001 )    10.53211882
 
     32    -0.585E-10     0.0000493073       10.5321188185       1.67  <-- CONV
        O_D=      0.0000000 O_OD=      4.5836927 O_TOT=     10.5321188 <-- SPRD
 Delta: O_D=  0.8351092E-14 O_OD= -0.5847323E-10 O_TOT= -0.5846346E-10 <-- DLTA
 ------------------------------------------------------------------------------
 Cycle:     33
  WF centre and spread    1  (  0.000021,  0.000005,  0.000015 )     1.68987481
  WF centre and spread    2  (  0.000000,  0.000000, -0.000018 )     2.18740599
  WF centre and spread    3  ( -0.000026, -0.000000,  0.000000 )     2.18742259
  WF centre and spread    4  (  0.000000, -0.000006,  0.000000 )     2.18742254
  WF centre and spread    5  (  0.000001,  0.000000,  0.000002 )     0.49100014
  WF centre and spread    6  ( -0.000000,  0.000000, -0.000000 )     0.43266452
  WF centre and spread    7  (  0.000000,  0.000000,  0.000000 )     0.43266452
  WF centre and spread    8  (  0.000002,  0.000001,  0.000000 )     0.49099880
  WF centre and spread    9  ( -0.000000,  0.000000,  0.000000 )     0.43266487
  Sum of centres and spreads ( -0.000001, -0.000000, -0.000001 )    10.53211879
 
     33    -0.274E-07     0.0000492637       10.5321187910       1.70  <-- CONV
        O_D=      0.0000000 O_OD=      4.5836927 O_TOT=     10.5321188 <-- SPRD
 Delta: O_D=  0.6554127E-11 O_OD= -0.2741744E-07 O_TOT= -0.2741089E-07 <-- DLTA
 ------------------------------------------------------------------------------
 Cycle:     34
  WF centre and spread    1  (  0.000039,  0.000009,  0.000027 )     1.68985198
  WF centre and spread    2  (  0.000000,  0.000000, -0.000033 )     2.18741217
  WF centre and spread    3  ( -0.000047, -0.000000,  0.000000 )     2.18742901
  WF centre and spread    4  (  0.000000, -0.000011,  0.000000 )     2.18742896
  WF centre and spread    5  (  0.000001,  0.000000,  0.000004 )     0.49100120
  WF centre and spread    6  ( -0.000000,  0.000000, -0.000000 )     0.43266518
  WF centre and spread    7  (  0.000000,  0.000000, -0.000000 )     0.43266518
  WF centre and spread    8  (  0.000004,  0.000001,  0.000000 )     0.49099957
  WF centre and spread    9  ( -0.000000,  0.000000,  0.000000 )     0.43266553
  Sum of centres and spreads ( -0.000001, -0.000000, -0.000001 )    10.53211878
 
     34    -0.158E-07     0.0000510630       10.5321187753       1.72  <-- CONV
        O_D=      0.0000000 O_OD=      4.5836927 O_TOT=     10.5321188 <-- SPRD
 Delta: O_D=  0.6084968E-10 O_OD= -0.1583957E-07 O_TOT= -0.1577872E-07 <-- DLTA
 ------------------------------------------------------------------------------
 Cycle:     35
  WF centre and spread    1  (  0.000042,  0.000010,  0.000030 )     1.68985387
  WF centre and spread    2  (  0.000000,  0.000000, -0.000036 )     2.18741165
  WF centre and spread    3  ( -0.000051, -0.000000,  0.000000 )     2.18742848
  WF centre and spread    4  (  0.000000, -0.000012,  0.000000 )     2.18742843
  WF centre and spread    5  (  0.000001,  0.000000,  0.000005 )     0.49100148
  WF centre and spread    6  ( -0.000000,  0.000000, -0.000000 )     0.43266487
  WF centre and spread    7  (  0.000000,  0.000000, -0.000000 )     0.43266486
  WF centre and spread    8  (  0.000005,  0.000001,  0.000000 )     0.49099983
  WF centre and spread    9  ( -0.000000,  0.000000,  0.000000 )     0.43266522
  Sum of centres and spreads ( -0.000002, -0.000000, -0.000001 )    10.53211869
 
     35    -0.860E-07     0.0001240943       10.5321186893       1.75  <-- CONV
        O_D=      0.0000000 O_OD=      4.5836926 O_TOT=     10.5321187 <-- SPRD
 Delta: O_D=  0.1545502E-10 O_OD= -0.8597914E-07 O_TOT= -0.8596368E-07 <-- DLTA
 ------------------------------------------------------------------------------
 Cycle:     36
  WF centre and spread    1  (  0.000054,  0.000012,  0.000038 )     1.68986279
  WF centre and spread    2  (  0.000000,  0.000000, -0.000046 )     2.18740802
  WF centre and spread    3  ( -0.000065,  0.000000,  0.000000 )     2.18742484
  WF centre and spread    4  (  0.000000, -0.000015,  0.000000 )     2.18742480
  WF centre and spread    5  (  0.000002,  0.000000,  0.000006 )     0.49100300
  WF centre and spread    6  ( -0.000000,  0.000000, -0.000000 )     0.43266452
  WF centre and spread    7  (  0.000000,  0.000000, -0.000000 )     0.43266452
  WF centre and spread    8  (  0.000006,  0.000001,  0.000000 )     0.49100127
  WF centre and spread    9  ( -0.000000,  0.000000,  0.000000 )     0.43266488
  Sum of centres and spreads ( -0.000002, -0.000001, -0.000002 )    10.53211864
 
     36    -0.454E-07     0.0000764272       10.5321186439       1.77  <-- CONV
        O_D=      0.0000000 O_OD=      4.5836926 O_TOT=     10.5321186 <-- SPRD
 Delta: O_D=  0.6553179E-10 O_OD= -0.4546518E-07 O_TOT= -0.4539964E-07 <-- DLTA
 ------------------------------------------------------------------------------
 Cycle:     37
  WF centre and spread    1  (  0.000063,  0.000014,  0.000044 )     1.68986622
  WF centre and spread    2  (  0.000001,  0.000000, -0.000053 )     2.18740670
  WF centre and spread    3  ( -0.000075,  0.000000,  0.000000 )     2.18742352
  WF centre and spread    4  (  0.000000, -0.000017,  0.000000 )     2.18742348
  WF centre and spread    5  (  0.000002,  0.000000,  0.000007 )     0.49100309
  WF centre and spread    6  ( -0.000000,  0.000000, -0.000000 )     0.43266465
  WF centre and spread    7  (  0.000000,  0.000000, -0.000000 )     0.43266465
  WF centre and spread    8  (  0.000007,  0.000002,  0.000000 )     0.49100129
  WF centre and spread    9  ( -0.000000,  0.000000,  0.000000 )     0.43266501
  Sum of centres and spreads ( -0.000002, -0.000001, -0.000002 )    10.53211862
 
     37    -0.231E-07     0.0000826337       10.5321186208       1.80  <-- CONV
        O_D=      0.0000000 O_OD=      4.5836925 O_TOT=     10.5321186 <-- SPRD
 Delta: O_D=  0.5752560E-10 O_OD= -0.2313446E-07 O_TOT= -0.2307693E-07 <-- DLTA
 ------------------------------------------------------------------------------
 Cycle:     38
  WF centre and spread    1  (  0.000088,  0.000020,  0.000062 )     1.68987141
  WF centre and spread    2  (  0.000001,  0.000000, -0.000075 )     2.18740504
  WF centre and spread    3  ( -0.000105,  0.000000,  0.000000 )     2.18742190
  WF centre and spread    4  (  0.000001, -0.000024,  0.000000 )     2.18742186
  WF centre and spread    5  (  0.000003,  0.000001,  0.000009 )     0.49100188
  WF centre and spread    6  ( -0.000000,  0.000000, -0.000000 )     0.43266540
  WF centre and spread    7  (  0.000000, -0.000000, -0.000000 )     0.43266540
  WF centre and spread    8  (  0.000010,  0.000002,  0.000000 )     0.49099992
  WF centre and spread    9  ( -0.000000,  0.000000,  0.000000 )     0.43266576
  Sum of centres and spreads ( -0.000003, -0.000001, -0.000002 )    10.53211857
 
     38    -0.517E-07     0.0000709637       10.5321185691       1.82  <-- CONV
        O_D=      0.0000000 O_OD=      4.5836925 O_TOT=     10.5321186 <-- SPRD
 Delta: O_D=  0.2213093E-09 O_OD= -0.5194002E-07 O_TOT= -0.5171872E-07 <-- DLTA
 ------------------------------------------------------------------------------
 Cycle:     39
  WF centre and spread    1  (  0.000145,  0.000033,  0.000102 )     1.68988223
  WF centre and spread    2  (  0.000001,  0.000000, -0.000123 )     2.18740195
  WF centre and spread    3  ( -0.000173,  0.000000,  0.000001 )     2.18741892
  WF centre and spread    4  (  0.000001, -0.000039,  0.000001 )     2.18741890
  WF centre and spread    5  (  0.000005,  0.000001,  0.000015 )     0.49099959
  WF centre and spread    6  ( -0.000000,  0.000000, -0.000000 )     0.43266643
  WF centre and spread    7  (  0.000000, -0.000000, -0.000000 )     0.43266643
  WF centre and spread    8  (  0.000016,  0.000004,  0.000000 )     0.49099725
  WF centre and spread    9  ( -0.000000,  0.000000,  0.000000 )     0.43266680
  Sum of centres and spreads ( -0.000006, -0.000001, -0.000004 )    10.53211850
 
     39    -0.669E-07     0.0001143229       10.5321185022       1.85  <-- CONV
        O_D=      0.0000000 O_OD=      4.5836924 O_TOT=     10.5321185 <-- SPRD
 Delta: O_D=  0.7717791E-09 O_OD= -0.6769486E-07 O_TOT= -0.6692309E-07 <-- DLTA
 ------------------------------------------------------------------------------
 Cycle:     40
  WF centre and spread    1  (  0.000298,  0.000068,  0.000210 )     1.68990715
  WF centre and spread    2  (  0.000002,  0.000000, -0.000253 )     2.18739588
  WF centre and spread    3  ( -0.000356,  0.000000,  0.000001 )     2.18741316
  WF centre and spread    4  (  0.000002, -0.000081,  0.000001 )     2.18741323
  WF centre and spread    5  (  0.000010,  0.000002,  0.000032 )     0.49099524
  WF centre and spread    6  ( -0.000000,  0.000000, -0.000000 )     0.43266716
  WF centre and spread    7  (  0.000000, -0.000000, -0.000000 )     0.43266716
  WF centre and spread    8  (  0.000032,  0.000007,  0.000000 )     0.49099177
  WF centre and spread    9  ( -0.000000,  0.000000,  0.000000 )     0.43266755
  Sum of centres and spreads ( -0.000011, -0.000003, -0.000008 )    10.53211830
 
     40    -0.203E-06     0.0001644884       10.5321182988       1.87  <-- CONV
        O_D=      0.0000000 O_OD=      4.5836922 O_TOT=     10.5321183 <-- SPRD
 Delta: O_D=  0.3956685E-08 O_OD= -0.2073652E-06 O_TOT= -0.2034085E-06 <-- DLTA
 ------------------------------------------------------------------------------
 Cycle:     41
  WF centre and spread    1  (  0.000322,  0.000074,  0.000227 )     1.68989982
  WF centre and spread    2  (  0.000002,  0.000000, -0.000273 )     2.18739926
  WF centre and spread    3  ( -0.000384,  0.000000,  0.000002 )     2.18741656
  WF centre and spread    4  (  0.000002, -0.000088,  0.000001 )     2.18741665
  WF centre and spread    5  (  0.000011,  0.000002,  0.000034 )     0.49099638
  WF centre and spread    6  ( -0.000000,  0.000000, -0.000000 )     0.43266532
  WF centre and spread    7  (  0.000000, -0.000000, -0.000000 )     0.43266532
  WF centre and spread    8  (  0.000035,  0.000008,  0.000000 )     0.49099286
  WF centre and spread    9  ( -0.000000,  0.000000,  0.000000 )     0.43266571
  Sum of centres and spreads ( -0.000012, -0.000003, -0.000009 )    10.53211788
 
     41    -0.421E-06     0.0002900246       10.5321178776       1.90  <-- CONV
        O_D=      0.0000000 O_OD=      4.5836918 O_TOT=     10.5321179 <-- SPRD
 Delta: O_D=  0.8701863E-09 O_OD= -0.4220465E-06 O_TOT= -0.4211763E-06 <-- DLTA
 ------------------------------------------------------------------------------
 Cycle:     42
  WF centre and spread    1  (  0.000365,  0.000083,  0.000257 )     1.68988987
  WF centre and spread    2  (  0.000002,  0.000001, -0.000309 )     2.18740220
  WF centre and spread    3  ( -0.000435,  0.000000,  0.000002 )     2.18741952
  WF centre and spread    4  (  0.000002, -0.000099,  0.000002 )     2.18741965
  WF centre and spread    5  (  0.000012,  0.000003,  0.000039 )     0.49099930
  WF centre and spread    6  ( -0.000000,  0.000000, -0.000000 )     0.43266368
  WF centre and spread    7  (  0.000000, -0.000000, -0.000000 )     0.43266368
  WF centre and spread    8  (  0.000039,  0.000009,  0.000000 )     0.49099570
  WF centre and spread    9  ( -0.000000,  0.000000,  0.000000 )     0.43266407
  Sum of centres and spreads ( -0.000014, -0.000003, -0.000010 )    10.53211767
 
     42    -0.208E-06     0.0001859872       10.5321176695       1.93  <-- CONV
        O_D=      0.0000000 O_OD=      4.5836916 O_TOT=     10.5321177 <-- SPRD
 Delta: O_D=  0.1691425E-08 O_OD= -0.2097809E-06 O_TOT= -0.2080895E-06 <-- DLTA
 ------------------------------------------------------------------------------
 Cycle:     43
  WF centre and spread    1  (  0.000562,  0.000128,  0.000396 )     1.68984529
  WF centre and spread    2  (  0.000004,  0.000001, -0.000476 )     2.18741141
  WF centre and spread    3  ( -0.000670,  0.000001,  0.000003 )     2.18742874
  WF centre and spread    4  (  0.000004, -0.000153,  0.000002 )     2.18742912
  WF centre and spread    5  (  0.000019,  0.000004,  0.000060 )     0.49100839
  WF centre and spread    6  ( -0.000000,  0.000000, -0.000000 )     0.43266315
  WF centre and spread    7  (  0.000000, -0.000000, -0.000000 )     0.43266315
  WF centre and spread    8  (  0.000061,  0.000014,  0.000000 )     0.49100450
  WF centre and spread    9  ( -0.000000, -0.000000,  0.000000 )     0.43266353
  Sum of centres and spreads ( -0.000021, -0.000005, -0.000015 )    10.53211727
 
     43    -0.395E-06     0.0001158334       10.5321172749       1.95  <-- CONV
        O_D=      0.0000000 O_OD=      4.5836912 O_TOT=     10.5321173 <-- SPRD
 Delta: O_D=  0.1069833E-07 O_OD= -0.4053247E-06 O_TOT= -0.3946264E-06 <-- DLTA
 ------------------------------------------------------------------------------
 Cycle:     44
  WF centre and spread    1  (  0.000597,  0.000136,  0.000420 )     1.68984463
  WF centre and spread    2  (  0.000004,  0.000001, -0.000506 )     2.18741186
  WF centre and spread    3  ( -0.000711,  0.000001,  0.000003 )     2.18742918
  WF centre and spread    4  (  0.000004, -0.000162,  0.000003 )     2.18742962
  WF centre and spread    5  (  0.000020,  0.000005,  0.000064 )     0.49100690
  WF centre and spread    6  ( -0.000000,  0.000000, -0.000000 )     0.43266378
  WF centre and spread    7  (  0.000000, -0.000000, -0.000000 )     0.43266378
  WF centre and spread    8  (  0.000064,  0.000015,  0.000000 )     0.49100297
  WF centre and spread    9  ( -0.000000, -0.000000,  0.000000 )     0.43266416
  Sum of centres and spreads ( -0.000023, -0.000005, -0.000016 )    10.53211689
 
     44    -0.389E-06     0.0003149532       10.5321168860       1.98  <-- CONV
        O_D=      0.0000000 O_OD=      4.5836908 O_TOT=     10.5321169 <-- SPRD
 Delta: O_D=  0.2313624E-08 O_OD= -0.3911671E-06 O_TOT= -0.3888535E-06 <-- DLTA
 ------------------------------------------------------------------------------
 Cycle:     45
  WF centre and spread    1  (  0.001045,  0.000238,  0.000736 )     1.68987110
  WF centre and spread    2  (  0.000007,  0.000001, -0.000885 )     2.18740243
  WF centre and spread    3  ( -0.001245,  0.000001,  0.000005 )     2.18741939
  WF centre and spread    4  (  0.000007, -0.000284,  0.000005 )     2.18742084
  WF centre and spread    5  (  0.000035,  0.000008,  0.000111 )     0.49099915
  WF centre and spread    6  ( -0.000000,  0.000000, -0.000000 )     0.43266936
  WF centre and spread    7  (  0.000000, -0.000000, -0.000000 )     0.43266936
  WF centre and spread    8  (  0.000113,  0.000026,  0.000000 )     0.49099486
  WF centre and spread    9  ( -0.000000, -0.000000,  0.000000 )     0.43266975
  Sum of centres and spreads ( -0.000040, -0.000009, -0.000029 )    10.53211623
 
     45    -0.654E-06     0.0001799094       10.5321162321       2.00  <-- CONV
        O_D=      0.0000001 O_OD=      4.5836901 O_TOT=     10.5321162 <-- SPRD
 Delta: O_D=  0.4366605E-07 O_OD= -0.6975440E-06 O_TOT= -0.6538779E-06 <-- DLTA
 ------------------------------------------------------------------------------
 Cycle:     46
  WF centre and spread    1  (  0.001102,  0.000251,  0.000777 )     1.68987676
  WF centre and spread    2  (  0.000007,  0.000002, -0.000934 )     2.18740096
  WF centre and spread    3  ( -0.001313,  0.000001,  0.000005 )     2.18741780
  WF centre and spread    4  (  0.000007, -0.000299,  0.000005 )     2.18741942
  WF centre and spread    5  (  0.000037,  0.000008,  0.000117 )     0.49100027
  WF centre and spread    6  ( -0.000001,  0.000000, -0.000000 )     0.43266760
  WF centre and spread    7  (  0.000000, -0.000000, -0.000000 )     0.43266759
  WF centre and spread    8  (  0.000119,  0.000027,  0.000000 )     0.49099594
  WF centre and spread    9  ( -0.000000, -0.000000,  0.000000 )     0.43266798
  Sum of centres and spreads ( -0.000042, -0.000010, -0.000030 )    10.53211433
 
     46    -0.190E-05     0.0007364281       10.5321143285       2.03  <-- CONV
        O_D=      0.0000001 O_OD=      4.5836882 O_TOT=     10.5321143 <-- SPRD
 Delta: O_D=  0.6550544E-08 O_OD= -0.1910229E-05 O_TOT= -0.1903678E-05 <-- DLTA
 ------------------------------------------------------------------------------
 Cycle:     47
  WF centre and spread    1  (  0.001359,  0.000310,  0.000958 )     1.68988133
  WF centre and spread    2  (  0.000009,  0.000002, -0.001152 )     2.18740176
  WF centre and spread    3  ( -0.001619,  0.000002,  0.000006 )     2.18741806
  WF centre and spread    4  (  0.000009, -0.000369,  0.000006 )     2.18742056
  WF centre and spread    5  (  0.000045,  0.000010,  0.000145 )     0.49100361
  WF centre and spread    6  ( -0.000001,  0.000000, -0.000000 )     0.43266258
  WF centre and spread    7  (  0.000000, -0.000000, -0.000000 )     0.43266257
  WF centre and spread    8  (  0.000147,  0.000033,  0.000000 )     0.49099915
  WF centre and spread    9  ( -0.000001, -0.000000,  0.000000 )     0.43266296
  Sum of centres and spreads ( -0.000052, -0.000012, -0.000037 )    10.53211259
 
     47    -0.174E-05     0.0003821381       10.5321125889       2.05  <-- CONV
        O_D=      0.0000001 O_OD=      4.5836864 O_TOT=     10.5321126 <-- SPRD
 Delta: O_D=  0.3692254E-07 O_OD= -0.1776449E-05 O_TOT= -0.1739526E-05 <-- DLTA
 ------------------------------------------------------------------------------
 Cycle:     48
  WF centre and spread    1  (  0.007307,  0.001666,  0.005154 )     1.68967907
  WF centre and spread    2  (  0.000046,  0.000010, -0.006198 )     2.18745840
  WF centre and spread    3  ( -0.008703,  0.000010,  0.000033 )     2.18743735
  WF centre and spread    4  (  0.000046, -0.001985,  0.000033 )     2.18751170
  WF centre and spread    5  (  0.000242,  0.000055,  0.000780 )     0.49106716
  WF centre and spread    6  ( -0.000003,  0.000000, -0.000002 )     0.43262427
  WF centre and spread    7  (  0.000002, -0.000001, -0.000002 )     0.43262425
  WF centre and spread    8  (  0.000787,  0.000179,  0.000001 )     0.49105937
  WF centre and spread    9  ( -0.000003, -0.000001,  0.000001 )     0.43262469
  Sum of centres and spreads ( -0.000279, -0.000064, -0.000200 )    10.53208627
 
     48    -0.263E-04     0.0005073643       10.5320862701       2.08  <-- CONV
        O_D=      0.0000031 O_OD=      4.5836570 O_TOT=     10.5320863 <-- SPRD
 Delta: O_D=  0.3040462E-05 O_OD= -0.2935933E-04 O_TOT= -0.2631887E-04 <-- DLTA
 ------------------------------------------------------------------------------
 Cycle:     49
  WF centre and spread    1  (  0.007826,  0.001785,  0.005520 )     1.68965910
  WF centre and spread    2  (  0.000050,  0.000011, -0.006638 )     2.18740663
  WF centre and spread    3  ( -0.009321,  0.000011,  0.000035 )     2.18738085
  WF centre and spread    4  (  0.000050, -0.002126,  0.000035 )     2.18746582
  WF centre and spread    5  (  0.000259,  0.000059,  0.000836 )     0.49105764
  WF centre and spread    6  ( -0.000003,  0.000000, -0.000002 )     0.43264241
  WF centre and spread    7  (  0.000002, -0.000001, -0.000002 )     0.43264238
  WF centre and spread    8  (  0.000843,  0.000192,  0.000001 )     0.49104988
[...]
 Delta: O_D=  0.9392938E-12 O_OD= -0.1891154E-11 O_TOT= -0.9521273E-12 <-- DLTA
 ------------------------------------------------------------------------------
 Cycle:    386
  WF centre and spread    1  (  0.709852,  0.000052,  0.000084 )     1.08935240
  WF centre and spread    2  (  0.000084,  0.000036, -0.709852 )     1.08935253
  WF centre and spread    3  ( -0.709852, -0.000052, -0.000084 )     1.08935257
  WF centre and spread    4  (  0.000052, -0.709852, -0.000036 )     1.08935245
  WF centre and spread    5  ( -0.000084, -0.000036,  0.709852 )     1.08935244
  WF centre and spread    6  ( -0.000000, -0.000000, -0.000000 )     0.43234427
  WF centre and spread    7  (  0.000000,  0.000000,  0.000000 )     0.43234431
  WF centre and spread    8  ( -0.000052,  0.709852,  0.000036 )     1.08935247
  WF centre and spread    9  ( -0.000000, -0.000000,  0.000000 )     0.43234428
  Sum of centres and spreads (  0.000000, -0.000000, -0.000000 )     7.83314771
 
    386    -0.186E-09     0.0000061275        7.8331477148      10.53  <-- CONV
        O_D=      0.0170277 O_OD=      1.8676939 O_TOT=      7.8331477 <-- SPRD
 Delta: O_D=  0.2211747E-09 O_OD= -0.4071359E-09 O_TOT= -0.1859606E-09 <-- DLTA
 ------------------------------------------------------------------------------
 Cycle:    387
  WF centre and spread    1  (  0.709852,  0.000052,  0.000084 )     1.08935240
  WF centre and spread    2  (  0.000084,  0.000036, -0.709852 )     1.08935253
  WF centre and spread    3  ( -0.709852, -0.000052, -0.000084 )     1.08935257
  WF centre and spread    4  (  0.000052, -0.709852, -0.000036 )     1.08935245
  WF centre and spread    5  ( -0.000084, -0.000036,  0.709852 )     1.08935244
  WF centre and spread    6  ( -0.000000, -0.000000, -0.000000 )     0.43234427
  WF centre and spread    7  (  0.000000,  0.000000,  0.000000 )     0.43234431
  WF centre and spread    8  ( -0.000052,  0.709852,  0.000036 )     1.08935247
  WF centre and spread    9  ( -0.000000, -0.000000,  0.000000 )     0.43234428
  Sum of centres and spreads (  0.000000, -0.000000, -0.000000 )     7.83314771
 
    387    -0.732E-10     0.0000055046        7.8331477148      10.56  <-- CONV
        O_D=      0.0170277 O_OD=      1.8676939 O_TOT=      7.8331477 <-- SPRD
 Delta: O_D=  0.7110451E-10 O_OD= -0.1442875E-09 O_TOT= -0.7318324E-10 <-- DLTA
 ------------------------------------------------------------------------------
 Cycle:    388
  WF centre and spread    1  (  0.709852,  0.000052,  0.000084 )     1.08935240
  WF centre and spread    2  (  0.000084,  0.000036, -0.709852 )     1.08935253
  WF centre and spread    3  ( -0.709852, -0.000052, -0.000084 )     1.08935257
  WF centre and spread    4  (  0.000052, -0.709852, -0.000036 )     1.08935245
  WF centre and spread    5  ( -0.000084, -0.000036,  0.709852 )     1.08935244
  WF centre and spread    6  ( -0.000000, -0.000000, -0.000000 )     0.43234427
  WF centre and spread    7  (  0.000000,  0.000000,  0.000000 )     0.43234431
  WF centre and spread    8  ( -0.000052,  0.709852,  0.000036 )     1.08935247
  WF centre and spread    9  ( -0.000000, -0.000000,  0.000000 )     0.43234428
  Sum of centres and spreads (  0.000000, -0.000000, -0.000000 )     7.83314771
 
    388    -0.271E-11     0.0000055758        7.8331477148      10.58  <-- CONV
        O_D=      0.0170277 O_OD=      1.8676939 O_TOT=      7.8331477 <-- SPRD
 Delta: O_D=  0.1764908E-11 O_OD= -0.4478640E-11 O_TOT= -0.2714273E-11 <-- DLTA
 ------------------------------------------------------------------------------
 Cycle:    389
  WF centre and spread    1  (  0.709852,  0.000051,  0.000083 )     1.08935240
  WF centre and spread    2  (  0.000083,  0.000035, -0.709852 )     1.08935253
  WF centre and spread    3  ( -0.709852, -0.000051, -0.000083 )     1.08935257
  WF centre and spread    4  (  0.000052, -0.709852, -0.000035 )     1.08935244
  WF centre and spread    5  ( -0.000083, -0.000035,  0.709852 )     1.08935244
  WF centre and spread    6  ( -0.000000, -0.000000, -0.000000 )     0.43234427
  WF centre and spread    7  (  0.000000,  0.000000,  0.000000 )     0.43234430
  WF centre and spread    8  ( -0.000051,  0.709852,  0.000035 )     1.08935247
  WF centre and spread    9  ( -0.000000, -0.000000,  0.000000 )     0.43234428
  Sum of centres and spreads (  0.000000, -0.000000, -0.000000 )     7.83314771
 
    389    -0.116E-08     0.0000055781        7.8331477136      10.60  <-- CONV
        O_D=      0.0170277 O_OD=      1.8676939 O_TOT=      7.8331477 <-- SPRD
 Delta: O_D=  0.5760939E-09 O_OD= -0.1739831E-08 O_TOT= -0.1163736E-08 <-- DLTA
 ------------------------------------------------------------------------------
 Cycle:    390
  WF centre and spread    1  (  0.709852,  0.000051,  0.000083 )     1.08935240
  WF centre and spread    2  (  0.000083,  0.000035, -0.709852 )     1.08935253
  WF centre and spread    3  ( -0.709852, -0.000051, -0.000082 )     1.08935257
  WF centre and spread    4  (  0.000052, -0.709852, -0.000035 )     1.08935244
  WF centre and spread    5  ( -0.000083, -0.000035,  0.709852 )     1.08935244
  WF centre and spread    6  ( -0.000000, -0.000000, -0.000000 )     0.43234427
  WF centre and spread    7  (  0.000000,  0.000000,  0.000000 )     0.43234430
  WF centre and spread    8  ( -0.000051,  0.709852,  0.000035 )     1.08935247
  WF centre and spread    9  ( -0.000000, -0.000000,  0.000000 )     0.43234428
  Sum of centres and spreads (  0.000000, -0.000000, -0.000000 )     7.83314771
 
    390    -0.667E-11     0.0000072784        7.8331477136      10.62  <-- CONV
        O_D=      0.0170277 O_OD=      1.8676939 O_TOT=      7.8331477 <-- SPRD
 Delta: O_D=  0.3084824E-12 O_OD= -0.6979750E-11 O_TOT= -0.6671996E-11 <-- DLTA
 ------------------------------------------------------------------------------
 Cycle:    391
  WF centre and spread    1  (  0.709852,  0.000051,  0.000083 )     1.08935240
  WF centre and spread    2  (  0.000083,  0.000035, -0.709852 )     1.08935253
  WF centre and spread    3  ( -0.709852, -0.000051, -0.000082 )     1.08935257
  WF centre and spread    4  (  0.000051, -0.709852, -0.000035 )     1.08935244
  WF centre and spread    5  ( -0.000082, -0.000035,  0.709852 )     1.08935244
  WF centre and spread    6  ( -0.000000, -0.000000, -0.000000 )     0.43234427
  WF centre and spread    7  (  0.000000,  0.000000,  0.000000 )     0.43234430
  WF centre and spread    8  ( -0.000051,  0.709852,  0.000035 )     1.08935247
  WF centre and spread    9  ( -0.000000, -0.000000,  0.000000 )     0.43234428
  Sum of centres and spreads (  0.000000, -0.000000, -0.000000 )     7.83314771
 
    391    -0.663E-10     0.0000072762        7.8331477135      10.64  <-- CONV
        O_D=      0.0170277 O_OD=      1.8676939 O_TOT=      7.8331477 <-- SPRD
 Delta: O_D= -0.1337329E-09 O_OD=  0.6744849E-10 O_TOT= -0.6628387E-10 <-- DLTA
 ------------------------------------------------------------------------------
 Cycle:    392
  WF centre and spread    1  (  0.709852,  0.000051,  0.000083 )     1.08935240
  WF centre and spread    2  (  0.000083,  0.000035, -0.709852 )     1.08935253
  WF centre and spread    3  ( -0.709852, -0.000051, -0.000082 )     1.08935257
  WF centre and spread    4  (  0.000051, -0.709852, -0.000035 )     1.08935245
  WF centre and spread    5  ( -0.000082, -0.000035,  0.709852 )     1.08935244
  WF centre and spread    6  ( -0.000000, -0.000000, -0.000000 )     0.43234427
  WF centre and spread    7  (  0.000000,  0.000000,  0.000000 )     0.43234430
  WF centre and spread    8  ( -0.000051,  0.709852,  0.000035 )     1.08935247
  WF centre and spread    9  ( -0.000000, -0.000000,  0.000000 )     0.43234428
  Sum of centres and spreads (  0.000000, -0.000000, -0.000000 )     7.83314771
 
    392    -0.101E-09     0.0000065423        7.8331477134      10.67  <-- CONV
        O_D=      0.0170277 O_OD=      1.8676939 O_TOT=      7.8331477 <-- SPRD
 Delta: O_D= -0.2127487E-09 O_OD=  0.1116252E-09 O_TOT= -0.1011236E-09 <-- DLTA
 ------------------------------------------------------------------------------
 Cycle:    393
  WF centre and spread    1  (  0.709852,  0.000051,  0.000082 )     1.08935240
  WF centre and spread    2  (  0.000082,  0.000035, -0.709852 )     1.08935253
  WF centre and spread    3  ( -0.709852, -0.000051, -0.000082 )     1.08935257
  WF centre and spread    4  (  0.000051, -0.709852, -0.000035 )     1.08935245
  WF centre and spread    5  ( -0.000082, -0.000035,  0.709852 )     1.08935244
  WF centre and spread    6  ( -0.000000, -0.000000, -0.000000 )     0.43234427
  WF centre and spread    7  (  0.000000,  0.000000,  0.000000 )     0.43234431
  WF centre and spread    8  ( -0.000051,  0.709852,  0.000035 )     1.08935247
  WF centre and spread    9  ( -0.000000, -0.000000,  0.000000 )     0.43234428
  Sum of centres and spreads (  0.000000, -0.000000, -0.000000 )     7.83314771
 
    393    -0.247E-09     0.0000056856        7.8331477132      10.69  <-- CONV
        O_D=      0.0170277 O_OD=      1.8676939 O_TOT=      7.8331477 <-- SPRD
 Delta: O_D= -0.5839499E-09 O_OD=  0.3373550E-09 O_TOT= -0.2465956E-09 <-- DLTA
 ------------------------------------------------------------------------------
 Cycle:    394
  WF centre and spread    1  (  0.709852,  0.000051,  0.000082 )     1.08935240
  WF centre and spread    2  (  0.000082,  0.000035, -0.709852 )     1.08935252
  WF centre and spread    3  ( -0.709852, -0.000051, -0.000081 )     1.08935257
  WF centre and spread    4  (  0.000051, -0.709852, -0.000035 )     1.08935245
  WF centre and spread    5  ( -0.000082, -0.000035,  0.709852 )     1.08935244
  WF centre and spread    6  ( -0.000000, -0.000000, -0.000000 )     0.43234427
  WF centre and spread    7  (  0.000000,  0.000000,  0.000000 )     0.43234431
  WF centre and spread    8  ( -0.000051,  0.709852,  0.000035 )     1.08935247
  WF centre and spread    9  ( -0.000000, -0.000000,  0.000000 )     0.43234428
  Sum of centres and spreads (  0.000000, -0.000000, -0.000000 )     7.83314771
 
    394    -0.330E-09     0.0000065490        7.8331477129      10.72  <-- CONV
        O_D=      0.0170277 O_OD=      1.8676939 O_TOT=      7.8331477 <-- SPRD
 Delta: O_D= -0.5138959E-09 O_OD=  0.1840692E-09 O_TOT= -0.3298259E-09 <-- DLTA
 ------------------------------------------------------------------------------
 Cycle:    395
  WF centre and spread    1  (  0.709852,  0.000051,  0.000082 )     1.08935240
  WF centre and spread    2  (  0.000082,  0.000035, -0.709852 )     1.08935252
  WF centre and spread    3  ( -0.709852, -0.000051, -0.000081 )     1.08935257
  WF centre and spread    4  (  0.000051, -0.709852, -0.000035 )     1.08935245
  WF centre and spread    5  ( -0.000081, -0.000035,  0.709852 )     1.08935244
  WF centre and spread    6  ( -0.000000, -0.000000, -0.000000 )     0.43234427
  WF centre and spread    7  (  0.000000,  0.000000,  0.000000 )     0.43234431
  WF centre and spread    8  ( -0.000051,  0.709852,  0.000035 )     1.08935247
  WF centre and spread    9  ( -0.000000, -0.000000,  0.000000 )     0.43234428
  Sum of centres and spreads (  0.000000, -0.000000, -0.000000 )     7.83314771
 
    395    -0.614E-11     0.0000098184        7.8331477128      10.73  <-- CONV
        O_D=      0.0170277 O_OD=      1.8676939 O_TOT=      7.8331477 <-- SPRD
 Delta: O_D= -0.3937097E-11 O_OD= -0.2205125E-11 O_TOT= -0.6142642E-11 <-- DLTA
 ------------------------------------------------------------------------------
 Cycle:    396
  WF centre and spread    1  (  0.709852,  0.000051,  0.000082 )     1.08935240
  WF centre and spread    2  (  0.000082,  0.000035, -0.709852 )     1.08935252
  WF centre and spread    3  ( -0.709852, -0.000051, -0.000081 )     1.08935257
  WF centre and spread    4  (  0.000051, -0.709852, -0.000035 )     1.08935245
  WF centre and spread    5  ( -0.000081, -0.000035,  0.709852 )     1.08935244
  WF centre and spread    6  ( -0.000000, -0.000000, -0.000000 )     0.43234427
  WF centre and spread    7  (  0.000000,  0.000000,  0.000000 )     0.43234431
  WF centre and spread    8  ( -0.000051,  0.709852,  0.000035 )     1.08935247
  WF centre and spread    9  ( -0.000000, -0.000000,  0.000000 )     0.43234428
  Sum of centres and spreads (  0.000000, -0.000000, -0.000000 )     7.83314771
 
    396    -0.857E-11     0.0000098392        7.8331477128      10.75  <-- CONV
        O_D=      0.0170277 O_OD=      1.8676939 O_TOT=      7.8331477 <-- SPRD
 Delta: O_D= -0.1037295E-11 O_OD= -0.7528422E-11 O_TOT= -0.8565593E-11 <-- DLTA
 ------------------------------------------------------------------------------
 Cycle:    397
  WF centre and spread    1  (  0.709852,  0.000051,  0.000082 )     1.08935240
  WF centre and spread    2  (  0.000082,  0.000035, -0.709852 )     1.08935252
  WF centre and spread    3  ( -0.709852, -0.000051, -0.000081 )     1.08935257
  WF centre and spread    4  (  0.000051, -0.709852, -0.000035 )     1.08935245
  WF centre and spread    5  ( -0.000081, -0.000035,  0.709852 )     1.08935244
  WF centre and spread    6  ( -0.000000, -0.000000, -0.000000 )     0.43234427
  WF centre and spread    7  (  0.000000,  0.000000,  0.000000 )     0.43234431
  WF centre and spread    8  ( -0.000051,  0.709852,  0.000035 )     1.08935247
  WF centre and spread    9  ( -0.000000, -0.000000,  0.000000 )     0.43234428
  Sum of centres and spreads (  0.000000, -0.000000, -0.000000 )     7.83314771
 
    397    -0.905E-10     0.0000098281        7.8331477127      10.77  <-- CONV
        O_D=      0.0170277 O_OD=      1.8676939 O_TOT=      7.8331477 <-- SPRD
 Delta: O_D=  0.1206883E-09 O_OD= -0.2112333E-09 O_TOT= -0.9054535E-10 <-- DLTA
 ------------------------------------------------------------------------------
 Cycle:    398
  WF centre and spread    1  (  0.709852,  0.000051,  0.000082 )     1.08935240
  WF centre and spread    2  (  0.000082,  0.000035, -0.709852 )     1.08935253
  WF centre and spread    3  ( -0.709852, -0.000051, -0.000081 )     1.08935257
  WF centre and spread    4  (  0.000051, -0.709852, -0.000035 )     1.08935245
  WF centre and spread    5  ( -0.000081, -0.000035,  0.709852 )     1.08935244
  WF centre and spread    6  ( -0.000000, -0.000000, -0.000000 )     0.43234427
  WF centre and spread    7  (  0.000000,  0.000000,  0.000000 )     0.43234431
  WF centre and spread    8  ( -0.000051,  0.709852,  0.000035 )     1.08935247
  WF centre and spread    9  ( -0.000000, -0.000000,  0.000000 )     0.43234428
  Sum of centres and spreads (  0.000000, -0.000000, -0.000000 )     7.83314771
 
    398    -0.116E-09     0.0000085898        7.8331477126      10.80  <-- CONV
        O_D=      0.0170277 O_OD=      1.8676939 O_TOT=      7.8331477 <-- SPRD
 Delta: O_D=  0.1946543E-09 O_OD= -0.3106282E-09 O_TOT= -0.1159739E-09 <-- DLTA
 ------------------------------------------------------------------------------
 Cycle:    399
  WF centre and spread    1  (  0.709852,  0.000051,  0.000081 )     1.08935240
  WF centre and spread    2  (  0.000081,  0.000035, -0.709852 )     1.08935253
  WF centre and spread    3  ( -0.709852, -0.000051, -0.000081 )     1.08935257
  WF centre and spread    4  (  0.000051, -0.709852, -0.000035 )     1.08935245
  WF centre and spread    5  ( -0.000081, -0.000035,  0.709852 )     1.08935244
  WF centre and spread    6  ( -0.000000, -0.000000, -0.000000 )     0.43234427
  WF centre and spread    7  (  0.000000,  0.000000,  0.000000 )     0.43234431
  WF centre and spread    8  ( -0.000051,  0.709852,  0.000035 )     1.08935247
  WF centre and spread    9  ( -0.000000, -0.000000,  0.000000 )     0.43234428
  Sum of centres and spreads (  0.000000, -0.000000, -0.000000 )     7.83314771
 
    399    -0.161E-09     0.0000069745        7.8331477125      10.82  <-- CONV
        O_D=      0.0170277 O_OD=      1.8676939 O_TOT=      7.8331477 <-- SPRD
 Delta: O_D=  0.4072502E-09 O_OD= -0.5683034E-09 O_TOT= -0.1610525E-09 <-- DLTA
 ------------------------------------------------------------------------------
 Cycle:    400
  WF centre and spread    1  (  0.709852,  0.000051,  0.000081 )     1.08935240
  WF centre and spread    2  (  0.000081,  0.000035, -0.709852 )     1.08935253
  WF centre and spread    3  ( -0.709852, -0.000051, -0.000081 )     1.08935257
  WF centre and spread    4  (  0.000051, -0.709852, -0.000035 )     1.08935245
  WF centre and spread    5  ( -0.000081, -0.000035,  0.709852 )     1.08935244
  WF centre and spread    6  ( -0.000000, -0.000000, -0.000000 )     0.43234427
  WF centre and spread    7  (  0.000000,  0.000000,  0.000000 )     0.43234431
  WF centre and spread    8  ( -0.000051,  0.709852,  0.000035 )     1.08935247
  WF centre and spread    9  ( -0.000000, -0.000000,  0.000000 )     0.43234428
  Sum of centres and spreads (  0.000000, -0.000000, -0.000000 )     7.83314771
 
    400    -0.171E-11     0.0000053830        7.8331477125      10.84  <-- CONV
        O_D=      0.0170277 O_OD=      1.8676939 O_TOT=      7.8331477 <-- SPRD
 Delta: O_D=  0.4217703E-11 O_OD= -0.5931922E-11 O_TOT= -0.1714184E-11 <-- DLTA
 ------------------------------------------------------------------------------

 Writing checkpoint file iron_up.chk... done

 Final State
  WF centre and spread    1  (  0.709852,  0.000051,  0.000081 )     1.08935240
  WF centre and spread    2  (  0.000081,  0.000035, -0.709852 )     1.08935253
  WF centre and spread    3  ( -0.709852, -0.000051, -0.000081 )     1.08935257
  WF centre and spread    4  (  0.000051, -0.709852, -0.000035 )     1.08935245
  WF centre and spread    5  ( -0.000081, -0.000035,  0.709852 )     1.08935244
  WF centre and spread    6  ( -0.000000, -0.000000, -0.000000 )     0.43234427
  WF centre and spread    7  (  0.000000,  0.000000,  0.000000 )     0.43234431
  WF centre and spread    8  ( -0.000051,  0.709852,  0.000035 )     1.08935247
  WF centre and spread    9  ( -0.000000, -0.000000,  0.000000 )     0.43234428
  Sum of centres and spreads (  0.000000, -0.000000, -0.000000 )     7.83314771
 
         Spreads (Ang^2)       Omega I      =     5.948426086
        ================       Omega D      =     0.017027716
                               Omega OD     =     1.867693910
    Final Spread (Ang^2)       Omega Total  =     7.833147712
 ------------------------------------------------------------------------------

 Wannier centres written to file iron_up_centres.xyz
 Time for wannierise            9.756 (sec)

 Writing checkpoint file iron_up.chk... done

 *---------------------------------------------------------------------------*
 |                               PLOTTING                                    |
 *---------------------------------------------------------------------------*
 
 
 Calculating interpolated band-structure
 
 Time to calculate interpolated band structure       2.213 (sec)
 
 Time for plotting              2.466 (sec)
 Total Execution Time          15.617 (sec)

 *===========================================================================*
 |                             TIMING INFORMATION                            |
 *===========================================================================*
 |    Tag                                                Ncalls      Time (s)|
 |---------------------------------------------------------------------------|
 |kmesh: get                                        :         1         0.402|
 |overlap: allocate                                 :         1         0.000|
 |overlap: read                                     :         1         2.029|
 |dis: main                                         :         1         0.879|
 |wann: main                                        :         1         9.756|
 |plot: main                                        :         1         2.466|
 *---------------------------------------------------------------------------*
 
 All done: wannier90 exiting
